 Entering Link 1 = C:\G16W\l1.exe PID=     56616.
  
 Copyright (c) 1988-2019, Gaussian, Inc.  All Rights Reserved.
  
 This is part of the Gaussian(R) 16 program.  It is based on
 the Gaussian(R) 09 system (copyright 2009, Gaussian, Inc.),
 the Gaussian(R) 03 system (copyright 2003, Gaussian, Inc.),
 the Gaussian(R) 98 system (copyright 1998, Gaussian, Inc.),
 the Gaussian(R) 94 system (copyright 1995, Gaussian, Inc.),
 the Gaussian 92(TM) system (copyright 1992, Gaussian, Inc.),
 the Gaussian 90(TM) system (copyright 1990, Gaussian, Inc.),
 the Gaussian 88(TM) system (copyright 1988, Gaussian, Inc.),
 the Gaussian 86(TM) system (copyright 1986, Carnegie Mellon
 University), and the Gaussian 82(TM) system (copyright 1983,
 Carnegie Mellon University). Gaussian is a federally registered
 trademark of Gaussian, Inc.
  
 This software contains proprietary and confidential information,
 including trade secrets, belonging to Gaussian, Inc.
  
 This software is provided under written license and may be
 used, copied, transmitted, or stored only in accord with that
 written license.
  
 The following legend is applicable only to US Government
 contracts under FAR:
  
                    RESTRICTED RIGHTS LEGEND
  
 Use, reproduction and disclosure by the US Government is
 subject to restrictions as set forth in subparagraphs (a)
 and (c) of the Commercial Computer Software - Restricted
 Rights clause in FAR 52.227-19.
  
 Gaussian, Inc.
 340 Quinnipiac St., Bldg. 40, Wallingford CT 06492
  
  
 ---------------------------------------------------------------
 Warning -- This program may not be used in any manner that
 competes with the business of Gaussian, Inc. or will provide
 assistance to any competitor of Gaussian, Inc.  The licensee
 of this program is prohibited from giving any competitor of
 Gaussian, Inc. access to this program.  By using this program,
 the user acknowledges that Gaussian, Inc. is engaged in the
 business of creating and licensing software in the field of
 computational chemistry and represents and warrants to the
 licensee that it is not a competitor of Gaussian, Inc. and that
 it will not use this program in any manner prohibited above.
 ---------------------------------------------------------------
  

 Cite this work as:
 Gaussian 16, Revision C.01,
 M. J. Frisch, G. W. Trucks, H. B. Schlegel, G. E. Scuseria, 
 M. A. Robb, J. R. Cheeseman, G. Scalmani, V. Barone, 
 G. A. Petersson, H. Nakatsuji, X. Li, M. Caricato, A. V. Marenich, 
 J. Bloino, B. G. Janesko, R. Gomperts, B. Mennucci, H. P. Hratchian, 
 J. V. Ortiz, A. F. Izmaylov, J. L. Sonnenberg, D. Williams-Young, 
 F. Ding, F. Lipparini, F. Egidi, J. Goings, B. Peng, A. Petrone, 
 T. Henderson, D. Ranasinghe, V. G. Zakrzewski, J. Gao, N. Rega, 
 G. Zheng, W. Liang, M. Hada, M. Ehara, K. Toyota, R. Fukuda, 
 J. Hasegawa, M. Ishida, T. Nakajima, Y. Honda, O. Kitao, H. Nakai, 
 T. Vreven, K. Throssell, J. A. Montgomery, Jr., J. E. Peralta, 
 F. Ogliaro, M. J. Bearpark, J. J. Heyd, E. N. Brothers, K. N. Kudin, 
 V. N. Staroverov, T. A. Keith, R. Kobayashi, J. Normand, 
 K. Raghavachari, A. P. Rendell, J. C. Burant, S. S. Iyengar, 
 J. Tomasi, M. Cossi, J. M. Millam, M. Klene, C. Adamo, R. Cammi, 
 J. W. Ochterski, R. L. Martin, K. Morokuma, O. Farkas, 
 J. B. Foresman, and D. J. Fox, Gaussian, Inc., Wallingford CT, 2019.
 
 ******************************************
 Gaussian 16:  EM64W-G16RevC.01 30-May-2019
                01-Apr-2026 
 ******************************************
 %nprocshared=16
 Will use up to   16 processors via shared memory.
 %mem=64GB
 %chk=1-2.chk
 ----------------------------------------------------------------------
 #p opt freq b3lyp/6-31+g(d,p) empiricaldispersion=gd3bj geom=connectiv
 ity
 ----------------------------------------------------------------------
 1/18=20,19=15,26=3,38=1,57=2/1,3;
 2/9=110,12=2,17=6,18=5,40=1/2;
 3/5=1,6=6,7=111,11=2,25=1,30=1,71=1,74=-5,124=41/1,2,3;
 4//1;
 5/5=2,38=5/2;
 6/7=2,8=2,9=2,10=2,28=1/1;
 7//1,2,3,16;
 1/18=20,19=15,26=3/3(2);
 2/9=110/2;
 99//99;
 2/9=110/2;
 3/5=1,6=6,7=111,11=2,25=1,30=1,71=1,74=-5,124=41/1,2,3;
 4/5=5,16=3,69=1/1;
 5/5=2,38=5/2;
 7//1,2,3,16;
 1/18=20,19=15,26=3/3(-5);
 2/9=110/2;
 6/7=2,8=2,9=2,10=2,19=2,28=1/1;
 99/9=1/99;
 Leave Link    1 at Wed Apr 01 13:38:13 2026, MaxMem=  8589934592 cpu:               0.0 elap:               0.3
 (Enter C:\G16W\l101.exe)
 -------------------
 Title Card Required
 -------------------
 Symbolic Z-matrix:
 Charge =  1 Multiplicity = 1
 C                    -6.75885  -0.90261   0.27146 
 H                    -7.0567    0.04202   0.74779 
 H                    -7.24215  -0.98008  -0.71172 
 C                    -5.24735  -0.95138   0.105 
 H                    -4.77934  -0.84986   1.09577 
 C                    -4.71176   0.12923  -0.82344 
 H                    -4.81787   1.1214   -0.37806 
 H                    -5.24477   0.10486  -1.7819 
 O                    -3.31025  -0.07925  -1.05833 
 H                    -3.2011   -1.03461  -1.20172 
 O                    -4.84422  -2.1869   -0.48754 
 H                    -5.26962  -2.90412   0.00585 
 O                    -7.08826  -2.02276   1.09333 
 H                    -8.04449  -2.15172   1.11226 
 N                     1.60063   3.07597   0.00294 
 C                     2.14253   2.45652  -1.25961 
 H                     1.35714   2.44101  -2.01349 
 H                     2.9745    3.06856  -1.60996 
 H                     2.47963   1.44681  -1.02149 
 C                     1.06423   4.44836  -0.29329 
 H                     0.26743   4.37497  -1.03081 
 H                     0.67927   4.88198   0.62978 
 H                     1.8754    5.06243  -0.68529 
 C                     2.72185   3.1919    1.00414 
 H                     2.32306   3.62047   1.92394 
 H                     3.11382   2.19148   1.18609 
 H                     3.4923    3.84409   0.59144 
 C                     0.52541   2.19211   0.61978 
 H                     1.03619   1.30301   0.9877 
 H                     0.1178    2.7423    1.47051 
 C                    -0.62028   1.78849  -0.30815 
 H                    -1.05375   2.66496  -0.81516 
 H                    -0.26483   1.09542  -1.08261 
 O                    -1.54874   1.17524   0.55058 
 H                    -2.20744   0.67845   0.00935 
 C                     5.64413  -2.76584  -0.01898 
 H                     6.46826  -2.21238  -0.49079 
 H                     5.87229  -2.91631   1.04475 
 C                     4.34275  -1.98999  -0.16001 
 H                     4.14295  -1.82889  -1.23038 
 C                     4.3584   -0.64963   0.56288 
 H                     5.03764   0.05241   0.07133 
 H                     4.67782  -0.7882    1.604 
 O                     3.04696  -0.06591   0.53498 
 H                     2.44021  -0.80231   0.72509 
 O                     3.25813  -2.71322   0.4218 
 H                     3.29624  -3.62314   0.09015 
 O                     5.41381  -4.01183  -0.67532 
 H                     6.1398   -4.62262  -0.49776 
 
 Add virtual bond connecting atoms H35        and O9         Dist= 3.23D+00.
 Add virtual bond connecting atoms O44        and H19        Dist= 4.24D+00.
 Add virtual bond connecting atoms O44        and H26        Dist= 4.44D+00.
 ITRead=  0  0  0  0  0  0  0  0  0  0  0  0  0  0  0  0  0  0  0  0
 ITRead=  0  0  0  0  0  0  0  0  0  0  0  0  0  0  0  0  0  0  0  0
 ITRead=  0  0  0  0  0  0  0  0  0
 MicOpt= -1 -1 -1 -1 -1 -1 -1 -1 -1 -1 -1 -1 -1 -1 -1 -1 -1 -1 -1 -1
 MicOpt= -1 -1 -1 -1 -1 -1 -1 -1 -1 -1 -1 -1 -1 -1 -1 -1 -1 -1 -1 -1
 MicOpt= -1 -1 -1 -1 -1 -1 -1 -1 -1
 NAtoms=     49 NQM=       49 NQMF=       0 NMMI=      0 NMMIF=      0
                NMic=       0 NMicF=      0.
                    Isotopes and Nuclear Properties:
 (Nuclear quadrupole moments (NQMom) in fm**2, nuclear magnetic moments (NMagM)
  in nuclear magnetons)

  Atom         1           2           3           4           5           6           7           8           9          10
 IAtWgt=          12           1           1          12           1          12           1           1          16           1
 AtmWgt=  12.0000000   1.0078250   1.0078250  12.0000000   1.0078250  12.0000000   1.0078250   1.0078250  15.9949146   1.0078250
 NucSpn=           0           1           1           0           1           0           1           1           0           1
 AtZEff=   0.0000000   0.0000000   0.0000000   0.0000000   0.0000000   0.0000000   0.0000000   0.0000000   0.0000000   0.0000000
 NQMom=    0.0000000   0.0000000   0.0000000   0.0000000   0.0000000   0.0000000   0.0000000   0.0000000   0.0000000   0.0000000
 NMagM=    0.0000000   2.7928460   2.7928460   0.0000000   2.7928460   0.0000000   2.7928460   2.7928460   0.0000000   2.7928460
 AtZNuc=   6.0000000   1.0000000   1.0000000   6.0000000   1.0000000   6.0000000   1.0000000   1.0000000   8.0000000   1.0000000

  Atom        11          12          13          14          15          16          17          18          19          20
 IAtWgt=          16           1          16           1          14          12           1           1           1          12
 AtmWgt=  15.9949146   1.0078250  15.9949146   1.0078250  14.0030740  12.0000000   1.0078250   1.0078250   1.0078250  12.0000000
 NucSpn=           0           1           0           1           2           0           1           1           1           0
 AtZEff=   0.0000000   0.0000000   0.0000000   0.0000000   0.0000000   0.0000000   0.0000000   0.0000000   0.0000000   0.0000000
 NQMom=    0.0000000   0.0000000   0.0000000   0.0000000   2.0440000   0.0000000   0.0000000   0.0000000   0.0000000   0.0000000
 NMagM=    0.0000000   2.7928460   0.0000000   2.7928460   0.4037610   0.0000000   2.7928460   2.7928460   2.7928460   0.0000000
 AtZNuc=   8.0000000   1.0000000   8.0000000   1.0000000   7.0000000   6.0000000   1.0000000   1.0000000   1.0000000   6.0000000

  Atom        21          22          23          24          25          26          27          28          29          30
 IAtWgt=           1           1           1          12           1           1           1          12           1           1
 AtmWgt=   1.0078250   1.0078250   1.0078250  12.0000000   1.0078250   1.0078250   1.0078250  12.0000000   1.0078250   1.0078250
 NucSpn=           1           1           1           0           1           1           1           0           1           1
 AtZEff=   0.0000000   0.0000000   0.0000000   0.0000000   0.0000000   0.0000000   0.0000000   0.0000000   0.0000000   0.0000000
 NQMom=    0.0000000   0.0000000   0.0000000   0.0000000   0.0000000   0.0000000   0.0000000   0.0000000   0.0000000   0.0000000
 NMagM=    2.7928460   2.7928460   2.7928460   0.0000000   2.7928460   2.7928460   2.7928460   0.0000000   2.7928460   2.7928460
 AtZNuc=   1.0000000   1.0000000   1.0000000   6.0000000   1.0000000   1.0000000   1.0000000   6.0000000   1.0000000   1.0000000

  Atom        31          32          33          34          35          36          37          38          39          40
 IAtWgt=          12           1           1          16           1          12           1           1          12           1
 AtmWgt=  12.0000000   1.0078250   1.0078250  15.9949146   1.0078250  12.0000000   1.0078250   1.0078250  12.0000000   1.0078250
 NucSpn=           0           1           1           0           1           0           1           1           0           1
 AtZEff=   0.0000000   0.0000000   0.0000000   0.0000000   0.0000000   0.0000000   0.0000000   0.0000000   0.0000000   0.0000000
 NQMom=    0.0000000   0.0000000   0.0000000   0.0000000   0.0000000   0.0000000   0.0000000   0.0000000   0.0000000   0.0000000
 NMagM=    0.0000000   2.7928460   2.7928460   0.0000000   2.7928460   0.0000000   2.7928460   2.7928460   0.0000000   2.7928460
 AtZNuc=   6.0000000   1.0000000   1.0000000   8.0000000   1.0000000   6.0000000   1.0000000   1.0000000   6.0000000   1.0000000

  Atom        41          42          43          44          45          46          47          48          49
 IAtWgt=          12           1           1          16           1          16           1          16           1
 AtmWgt=  12.0000000   1.0078250   1.0078250  15.9949146   1.0078250  15.9949146   1.0078250  15.9949146   1.0078250
 NucSpn=           0           1           1           0           1           0           1           0           1
 AtZEff=   0.0000000   0.0000000   0.0000000   0.0000000   0.0000000   0.0000000   0.0000000   0.0000000   0.0000000
 NQMom=    0.0000000   0.0000000   0.0000000   0.0000000   0.0000000   0.0000000   0.0000000   0.0000000   0.0000000
 NMagM=    0.0000000   2.7928460   2.7928460   0.0000000   2.7928460   0.0000000   2.7928460   0.0000000   2.7928460
 AtZNuc=   6.0000000   1.0000000   1.0000000   8.0000000   1.0000000   8.0000000   1.0000000   8.0000000   1.0000000
 Leave Link  101 at Wed Apr 01 13:38:14 2026, MaxMem=  8589934592 cpu:               1.0 elap:               0.4
 (Enter C:\G16W\l103.exe)

 GradGradGradGradGradGradGradGradGradGradGradGradGradGradGradGradGradGrad
 Berny optimization.
 Initialization pass.
                           ----------------------------
                           !    Initial Parameters    !
                           ! (Angstroms and Degrees)  !
 --------------------------                            --------------------------
 ! Name  Definition              Value          Derivative Info.                !
 --------------------------------------------------------------------------------
 ! R1    R(1,2)                  1.0991         estimate D2E/DX2                !
 ! R2    R(1,3)                  1.0983         estimate D2E/DX2                !
 ! R3    R(1,4)                  1.5214         estimate D2E/DX2                !
 ! R4    R(1,13)                 1.4278         estimate D2E/DX2                !
 ! R5    R(4,5)                  1.1004         estimate D2E/DX2                !
 ! R6    R(4,6)                  1.522          estimate D2E/DX2                !
 ! R7    R(4,11)                 1.4283         estimate D2E/DX2                !
 ! R8    R(6,7)                  1.0927         estimate D2E/DX2                !
 ! R9    R(6,8)                  1.097          estimate D2E/DX2                !
 ! R10   R(6,9)                  1.4363         estimate D2E/DX2                !
 ! R11   R(9,10)                 0.9722         estimate D2E/DX2                !
 ! R12   R(9,35)                 1.7118         estimate D2E/DX2                !
 ! R13   R(11,12)                0.9689         estimate D2E/DX2                !
 ! R14   R(13,14)                0.9651         estimate D2E/DX2                !
 ! R15   R(15,16)                1.5071         estimate D2E/DX2                !
 ! R16   R(15,20)                1.503          estimate D2E/DX2                !
 ! R17   R(15,24)                1.5076         estimate D2E/DX2                !
 ! R18   R(15,28)                1.5224         estimate D2E/DX2                !
 ! R19   R(16,17)                1.0888         estimate D2E/DX2                !
 ! R20   R(16,18)                1.0907         estimate D2E/DX2                !
 ! R21   R(16,19)                1.0908         estimate D2E/DX2                !
 ! R22   R(19,44)                2.2434         estimate D2E/DX2                !
 ! R23   R(20,21)                1.0882         estimate D2E/DX2                !
 ! R24   R(20,22)                1.0901         estimate D2E/DX2                !
 ! R25   R(20,23)                1.0903         estimate D2E/DX2                !
 ! R26   R(24,25)                1.0903         estimate D2E/DX2                !
 ! R27   R(24,26)                1.0898         estimate D2E/DX2                !
 ! R28   R(24,27)                1.0905         estimate D2E/DX2                !
 ! R29   R(26,44)                2.3504         estimate D2E/DX2                !
 ! R30   R(28,29)                1.0894         estimate D2E/DX2                !
 ! R31   R(28,30)                1.0921         estimate D2E/DX2                !
 ! R32   R(28,31)                1.5286         estimate D2E/DX2                !
 ! R33   R(31,32)                1.1014         estimate D2E/DX2                !
 ! R34   R(31,33)                1.0984         estimate D2E/DX2                !
 ! R35   R(31,34)                1.4055         estimate D2E/DX2                !
 ! R36   R(34,35)                0.9867         estimate D2E/DX2                !
 ! R37   R(36,37)                1.0991         estimate D2E/DX2                !
 ! R38   R(36,38)                1.0983         estimate D2E/DX2                !
 ! R39   R(36,39)                1.5217         estimate D2E/DX2                !
 ! R40   R(36,48)                1.427          estimate D2E/DX2                !
 ! R41   R(39,40)                1.1007         estimate D2E/DX2                !
 ! R42   R(39,41)                1.523          estimate D2E/DX2                !
 ! R43   R(39,46)                1.4276         estimate D2E/DX2                !
 ! R44   R(41,42)                1.0935         estimate D2E/DX2                !
 ! R45   R(41,43)                1.0978         estimate D2E/DX2                !
 ! R46   R(41,44)                1.4358         estimate D2E/DX2                !
 ! R47   R(44,45)                0.9729         estimate D2E/DX2                !
 ! R48   R(46,47)                0.9692         estimate D2E/DX2                !
 ! R49   R(48,49)                0.9652         estimate D2E/DX2                !
 ! A1    A(2,1,3)              109.229          estimate D2E/DX2                !
 ! A2    A(2,1,4)              110.1333         estimate D2E/DX2                !
 ! A3    A(2,1,13)             111.2408         estimate D2E/DX2                !
 ! A4    A(3,1,4)              109.6932         estimate D2E/DX2                !
 ! A5    A(3,1,13)             111.0029         estimate D2E/DX2                !
 ! A6    A(4,1,13)             105.4878         estimate D2E/DX2                !
 ! A7    A(1,4,5)              108.7273         estimate D2E/DX2                !
 ! A8    A(1,4,6)              113.1778         estimate D2E/DX2                !
 ! A9    A(1,4,11)             110.7026         estimate D2E/DX2                !
 ! A10   A(5,4,6)              109.5148         estimate D2E/DX2                !
 ! A11   A(5,4,11)             109.4671         estimate D2E/DX2                !
 ! A12   A(6,4,11)             105.1742         estimate D2E/DX2                !
 ! A13   A(4,6,7)              111.2137         estimate D2E/DX2                !
 ! A14   A(4,6,8)              110.2564         estimate D2E/DX2                !
 ! A15   A(4,6,9)              109.8822         estimate D2E/DX2                !
 ! A16   A(7,6,8)              109.2147         estimate D2E/DX2                !
 ! A17   A(7,6,9)              107.0501         estimate D2E/DX2                !
 ! A18   A(8,6,9)              109.1491         estimate D2E/DX2                !
 ! A19   A(6,9,10)             106.04           estimate D2E/DX2                !
 ! A20   A(6,9,35)             117.5424         estimate D2E/DX2                !
 ! A21   A(10,9,35)            117.0409         estimate D2E/DX2                !
 ! A22   A(4,11,12)            107.7665         estimate D2E/DX2                !
 ! A23   A(1,13,14)            110.1645         estimate D2E/DX2                !
 ! A24   A(16,15,20)           109.7865         estimate D2E/DX2                !
 ! A25   A(16,15,24)           108.6946         estimate D2E/DX2                !
 ! A26   A(16,15,28)           110.7772         estimate D2E/DX2                !
 ! A27   A(20,15,24)           109.0319         estimate D2E/DX2                !
 ! A28   A(20,15,28)           110.9723         estimate D2E/DX2                !
 ! A29   A(24,15,28)           107.5066         estimate D2E/DX2                !
 ! A30   A(15,16,17)           109.0589         estimate D2E/DX2                !
 ! A31   A(15,16,18)           108.224          estimate D2E/DX2                !
 ! A32   A(15,16,19)           107.9815         estimate D2E/DX2                !
 ! A33   A(17,16,18)           109.6232         estimate D2E/DX2                !
 ! A34   A(17,16,19)           111.1549         estimate D2E/DX2                !
 ! A35   A(18,16,19)           110.7221         estimate D2E/DX2                !
 ! A36   A(16,19,44)           148.6252         estimate D2E/DX2                !
 ! A37   A(15,20,21)           109.4705         estimate D2E/DX2                !
 ! A38   A(15,20,22)           108.8058         estimate D2E/DX2                !
 ! A39   A(15,20,23)           108.6403         estimate D2E/DX2                !
 ! A40   A(21,20,22)           110.0076         estimate D2E/DX2                !
 ! A41   A(21,20,23)           109.8201         estimate D2E/DX2                !
 ! A42   A(22,20,23)           110.0687         estimate D2E/DX2                !
 ! A43   A(15,24,25)           108.5693         estimate D2E/DX2                !
 ! A44   A(15,24,26)           107.9256         estimate D2E/DX2                !
 ! A45   A(15,24,27)           108.6678         estimate D2E/DX2                !
 ! A46   A(25,24,26)           110.5823         estimate D2E/DX2                !
 ! A47   A(25,24,27)           110.035          estimate D2E/DX2                !
 ! A48   A(26,24,27)           110.9827         estimate D2E/DX2                !
 ! A49   A(24,26,44)           145.6099         estimate D2E/DX2                !
 ! A50   A(15,28,29)           106.231          estimate D2E/DX2                !
 ! A51   A(15,28,30)           106.6633         estimate D2E/DX2                !
 ! A52   A(15,28,31)           115.8926         estimate D2E/DX2                !
 ! A53   A(29,28,30)           108.8495         estimate D2E/DX2                !
 ! A54   A(29,28,31)           109.9347         estimate D2E/DX2                !
 ! A55   A(30,28,31)           109.0371         estimate D2E/DX2                !
 ! A56   A(28,31,32)           111.3642         estimate D2E/DX2                !
 ! A57   A(28,31,33)           110.6147         estimate D2E/DX2                !
 ! A58   A(28,31,34)           103.8528         estimate D2E/DX2                !
 ! A59   A(32,31,33)           107.752          estimate D2E/DX2                !
 ! A60   A(32,31,34)           111.6212         estimate D2E/DX2                !
 ! A61   A(33,31,34)           111.6686         estimate D2E/DX2                !
 ! A62   A(31,34,35)           108.9973         estimate D2E/DX2                !
 ! A63   A(37,36,38)           109.2067         estimate D2E/DX2                !
 ! A64   A(37,36,39)           110.1652         estimate D2E/DX2                !
 ! A65   A(37,36,48)           111.2999         estimate D2E/DX2                !
 ! A66   A(38,36,39)           109.7119         estimate D2E/DX2                !
 ! A67   A(38,36,48)           111.0625         estimate D2E/DX2                !
 ! A68   A(39,36,48)           105.3388         estimate D2E/DX2                !
 ! A69   A(36,39,40)           108.663          estimate D2E/DX2                !
 ! A70   A(36,39,41)           113.3262         estimate D2E/DX2                !
 ! A71   A(36,39,46)           110.7136         estimate D2E/DX2                !
 ! A72   A(40,39,41)           109.55           estimate D2E/DX2                !
 ! A73   A(40,39,46)           109.424          estimate D2E/DX2                !
 ! A74   A(41,39,46)           105.0835         estimate D2E/DX2                !
 ! A75   A(39,41,42)           110.9797         estimate D2E/DX2                !
 ! A76   A(39,41,43)           110.0019         estimate D2E/DX2                !
 ! A77   A(39,41,44)           109.8289         estimate D2E/DX2                !
 ! A78   A(42,41,43)           109.0621         estimate D2E/DX2                !
 ! A79   A(42,41,44)           107.3142         estimate D2E/DX2                !
 ! A80   A(43,41,44)           109.6046         estimate D2E/DX2                !
 ! A81   A(19,44,26)            63.3699         estimate D2E/DX2                !
 ! A82   A(19,44,41)           121.2401         estimate D2E/DX2                !
 ! A83   A(19,44,45)           119.225          estimate D2E/DX2                !
 ! A84   A(26,44,41)           111.0456         estimate D2E/DX2                !
 ! A85   A(26,44,45)           133.6748         estimate D2E/DX2                !
 ! A86   A(41,44,45)           104.9581         estimate D2E/DX2                !
 ! A87   A(39,46,47)           107.8354         estimate D2E/DX2                !
 ! A88   A(36,48,49)           110.2744         estimate D2E/DX2                !
 ! A89   L(9,35,34,40,-1)      179.2254         estimate D2E/DX2                !
 ! A90   L(9,35,34,40,-2)      174.0254         estimate D2E/DX2                !
 ! D1    D(2,1,4,5)             58.4886         estimate D2E/DX2                !
 ! D2    D(2,1,4,6)            -63.4384         estimate D2E/DX2                !
 ! D3    D(2,1,4,11)           178.774          estimate D2E/DX2                !
 ! D4    D(3,1,4,5)            178.7395         estimate D2E/DX2                !
 ! D5    D(3,1,4,6)             56.8124         estimate D2E/DX2                !
 ! D6    D(3,1,4,11)           -60.9752         estimate D2E/DX2                !
 ! D7    D(13,1,4,5)           -61.6433         estimate D2E/DX2                !
 ! D8    D(13,1,4,6)           176.4297         estimate D2E/DX2                !
 ! D9    D(13,1,4,11)           58.6421         estimate D2E/DX2                !
 ! D10   D(2,1,13,14)           70.8472         estimate D2E/DX2                !
 ! D11   D(3,1,13,14)          -51.0046         estimate D2E/DX2                !
 ! D12   D(4,1,13,14)         -169.7522         estimate D2E/DX2                !
 ! D13   D(1,4,6,7)             68.6077         estimate D2E/DX2                !
 ! D14   D(1,4,6,8)            -52.6943         estimate D2E/DX2                !
 ! D15   D(1,4,6,9)           -173.0442         estimate D2E/DX2                !
 ! D16   D(5,4,6,7)            -52.8773         estimate D2E/DX2                !
 ! D17   D(5,4,6,8)           -174.1794         estimate D2E/DX2                !
 ! D18   D(5,4,6,9)             65.4708         estimate D2E/DX2                !
 ! D19   D(11,4,6,7)          -170.4239         estimate D2E/DX2                !
 ! D20   D(11,4,6,8)            68.274          estimate D2E/DX2                !
 ! D21   D(11,4,6,9)           -52.0758         estimate D2E/DX2                !
 ! D22   D(1,4,11,12)          -49.7106         estimate D2E/DX2                !
 ! D23   D(5,4,11,12)           70.1322         estimate D2E/DX2                !
 ! D24   D(6,4,11,12)         -172.2888         estimate D2E/DX2                !
 ! D25   D(4,6,9,10)            42.8905         estimate D2E/DX2                !
 ! D26   D(4,6,9,35)           -90.2225         estimate D2E/DX2                !
 ! D27   D(7,6,9,10)           163.7799         estimate D2E/DX2                !
 ! D28   D(7,6,9,35)            30.6669         estimate D2E/DX2                !
 ! D29   D(8,6,9,10)           -78.1276         estimate D2E/DX2                !
 ! D30   D(8,6,9,35)           148.7594         estimate D2E/DX2                !
 ! D31   D(6,9,34,31)         -130.7183         estimate D2E/DX2                !
 ! D32   D(10,9,34,31)          99.2878         estimate D2E/DX2                !
 ! D33   D(20,15,16,17)        -56.4558         estimate D2E/DX2                !
 ! D34   D(20,15,16,18)         62.7416         estimate D2E/DX2                !
 ! D35   D(20,15,16,19)       -177.3569         estimate D2E/DX2                !
 ! D36   D(24,15,16,17)       -175.6382         estimate D2E/DX2                !
 ! D37   D(24,15,16,18)        -56.4408         estimate D2E/DX2                !
 ! D38   D(24,15,16,19)         63.4607         estimate D2E/DX2                !
 ! D39   D(28,15,16,17)         66.4545         estimate D2E/DX2                !
 ! D40   D(28,15,16,18)       -174.3481         estimate D2E/DX2                !
 ! D41   D(28,15,16,19)        -54.4466         estimate D2E/DX2                !
 ! D42   D(16,15,20,21)         59.891          estimate D2E/DX2                !
 ! D43   D(16,15,20,22)       -179.8601         estimate D2E/DX2                !
 ! D44   D(16,15,20,23)        -60.0296         estimate D2E/DX2                !
 ! D45   D(24,15,20,21)        178.8661         estimate D2E/DX2                !
 ! D46   D(24,15,20,22)        -60.885          estimate D2E/DX2                !
 ! D47   D(24,15,20,23)         58.9455         estimate D2E/DX2                !
 ! D48   D(28,15,20,21)        -62.9041         estimate D2E/DX2                !
 ! D49   D(28,15,20,22)         57.3448         estimate D2E/DX2                !
 ! D50   D(28,15,20,23)        177.1753         estimate D2E/DX2                !
 ! D51   D(16,15,24,25)       -178.8051         estimate D2E/DX2                !
 ! D52   D(16,15,24,26)        -58.9074         estimate D2E/DX2                !
 ! D53   D(16,15,24,27)         61.5266         estimate D2E/DX2                !
 ! D54   D(20,15,24,25)         61.541          estimate D2E/DX2                !
 ! D55   D(20,15,24,26)       -178.5613         estimate D2E/DX2                !
 ! D56   D(20,15,24,27)        -58.1272         estimate D2E/DX2                !
 ! D57   D(28,15,24,25)        -58.8439         estimate D2E/DX2                !
 ! D58   D(28,15,24,26)         61.0538         estimate D2E/DX2                !
 ! D59   D(28,15,24,27)       -178.5122         estimate D2E/DX2                !
 ! D60   D(16,15,28,29)         69.0987         estimate D2E/DX2                !
 ! D61   D(16,15,28,30)       -174.9007         estimate D2E/DX2                !
 ! D62   D(16,15,28,31)        -53.3156         estimate D2E/DX2                !
 ! D63   D(20,15,28,29)       -168.6807         estimate D2E/DX2                !
 ! D64   D(20,15,28,30)        -52.6801         estimate D2E/DX2                !
 ! D65   D(20,15,28,31)         68.905          estimate D2E/DX2                !
 ! D66   D(24,15,28,29)        -49.5307         estimate D2E/DX2                !
 ! D67   D(24,15,28,30)         66.4699         estimate D2E/DX2                !
 ! D68   D(24,15,28,31)       -171.9451         estimate D2E/DX2                !
 ! D69   D(15,16,19,44)        -15.7105         estimate D2E/DX2                !
 ! D70   D(17,16,19,44)       -135.2954         estimate D2E/DX2                !
 ! D71   D(18,16,19,44)        102.6044         estimate D2E/DX2                !
 ! D72   D(16,19,44,26)        -20.0906         estimate D2E/DX2                !
 ! D73   D(16,19,44,41)       -119.6287         estimate D2E/DX2                !
 ! D74   D(16,19,44,45)        107.1144         estimate D2E/DX2                !
 ! D75   D(15,24,26,44)          7.3698         estimate D2E/DX2                !
 ! D76   D(25,24,26,44)        125.9896         estimate D2E/DX2                !
 ! D77   D(27,24,26,44)       -111.6012         estimate D2E/DX2                !
 ! D78   D(24,26,44,19)         25.4431         estimate D2E/DX2                !
 ! D79   D(24,26,44,41)        140.8283         estimate D2E/DX2                !
 ! D80   D(24,26,44,45)        -80.6028         estimate D2E/DX2                !
 ! D81   D(15,28,31,32)        -50.7904         estimate D2E/DX2                !
 ! D82   D(15,28,31,33)         69.0074         estimate D2E/DX2                !
 ! D83   D(15,28,31,34)       -171.0536         estimate D2E/DX2                !
 ! D84   D(29,28,31,32)       -171.2249         estimate D2E/DX2                !
 ! D85   D(29,28,31,33)        -51.4272         estimate D2E/DX2                !
 ! D86   D(29,28,31,34)         68.5119         estimate D2E/DX2                !
 ! D87   D(30,28,31,32)         69.5197         estimate D2E/DX2                !
 ! D88   D(30,28,31,33)       -170.6825         estimate D2E/DX2                !
 ! D89   D(30,28,31,34)        -50.7435         estimate D2E/DX2                !
 ! D90   D(28,31,34,35)       -165.3846         estimate D2E/DX2                !
 ! D91   D(32,31,34,35)         74.5262         estimate D2E/DX2                !
 ! D92   D(33,31,34,35)        -46.1635         estimate D2E/DX2                !
 ! D93   D(37,36,39,40)         58.4507         estimate D2E/DX2                !
 ! D94   D(37,36,39,41)        -63.574          estimate D2E/DX2                !
 ! D95   D(37,36,39,46)        178.6489         estimate D2E/DX2                !
 ! D96   D(38,36,39,40)        178.7059         estimate D2E/DX2                !
 ! D97   D(38,36,39,41)         56.6811         estimate D2E/DX2                !
 ! D98   D(38,36,39,46)        -61.096          estimate D2E/DX2                !
 ! D99   D(48,36,39,40)        -61.6814         estimate D2E/DX2                !
 ! D100  D(48,36,39,41)        176.2938         estimate D2E/DX2                !
 ! D101  D(48,36,39,46)         58.5168         estimate D2E/DX2                !
 ! D102  D(37,36,48,49)         70.4658         estimate D2E/DX2                !
 ! D103  D(38,36,48,49)        -51.4402         estimate D2E/DX2                !
 ! D104  D(39,36,48,49)       -170.1534         estimate D2E/DX2                !
 ! D105  D(36,39,41,42)         69.2336         estimate D2E/DX2                !
 ! D106  D(36,39,41,43)        -51.5511         estimate D2E/DX2                !
 ! D107  D(36,39,41,44)       -172.2701         estimate D2E/DX2                !
 ! D108  D(40,39,41,42)        -52.2952         estimate D2E/DX2                !
 ! D109  D(40,39,41,43)       -173.0799         estimate D2E/DX2                !
 ! D110  D(40,39,41,44)         66.2011         estimate D2E/DX2                !
 ! D111  D(46,39,41,42)       -169.7596         estimate D2E/DX2                !
 ! D112  D(46,39,41,43)         69.4557         estimate D2E/DX2                !
 ! D113  D(46,39,41,44)        -51.2633         estimate D2E/DX2                !
 ! D114  D(36,39,46,47)        -48.5932         estimate D2E/DX2                !
 ! D115  D(40,39,46,47)         71.1494         estimate D2E/DX2                !
 ! D116  D(41,39,46,47)       -171.3006         estimate D2E/DX2                !
 ! D117  D(39,41,44,19)        -96.1103         estimate D2E/DX2                !
 ! D118  D(39,41,44,26)       -166.9438         estimate D2E/DX2                !
 ! D119  D(39,41,44,45)         42.7516         estimate D2E/DX2                !
 ! D120  D(42,41,44,19)         24.6253         estimate D2E/DX2                !
 ! D121  D(42,41,44,26)        -46.2082         estimate D2E/DX2                !
 ! D122  D(42,41,44,45)        163.4872         estimate D2E/DX2                !
 ! D123  D(43,41,44,19)        142.931          estimate D2E/DX2                !
 ! D124  D(43,41,44,26)         72.0976         estimate D2E/DX2                !
 ! D125  D(43,41,44,45)        -78.207          estimate D2E/DX2                !
 --------------------------------------------------------------------------------
 Trust Radius=3.00D-01 FncErr=1.00D-07 GrdErr=1.00D-06 EigMax=2.50D+02 EigMin=1.00D-04
 Number of steps in this run=    274 maximum allowed number of steps=    294.
 GradGradGradGradGradGradGradGradGradGradGradGradGradGradGradGradGradGrad

 Leave Link  103 at Wed Apr 01 13:38:14 2026, MaxMem=  8589934592 cpu:               0.0 elap:               0.3
 (Enter C:\G16W\l202.exe)
                          Input orientation:                          
 ---------------------------------------------------------------------
 Center     Atomic      Atomic             Coordinates (Angstroms)
 Number     Number       Type             X           Y           Z
 ---------------------------------------------------------------------
      1          6           0       -6.758846   -0.902612    0.271462
      2          1           0       -7.056696    0.042019    0.747794
      3          1           0       -7.242154   -0.980082   -0.711715
      4          6           0       -5.247353   -0.951379    0.105004
      5          1           0       -4.779337   -0.849861    1.095768
      6          6           0       -4.711755    0.129226   -0.823441
      7          1           0       -4.817865    1.121399   -0.378063
      8          1           0       -5.244771    0.104858   -1.781895
      9          8           0       -3.310247   -0.079248   -1.058326
     10          1           0       -3.201097   -1.034609   -1.201719
     11          8           0       -4.844217   -2.186901   -0.487539
     12          1           0       -5.269621   -2.904123    0.005849
     13          8           0       -7.088259   -2.022763    1.093331
     14          1           0       -8.044495   -2.151725    1.112261
     15          7           0        1.600632    3.075970    0.002942
     16          6           0        2.142529    2.456515   -1.259605
     17          1           0        1.357137    2.441005   -2.013490
     18          1           0        2.974502    3.068556   -1.609959
     19          1           0        2.479625    1.446812   -1.021490
     20          6           0        1.064233    4.448356   -0.293294
     21          1           0        0.267434    4.374968   -1.030814
     22          1           0        0.679270    4.881979    0.629777
     23          1           0        1.875398    5.062431   -0.685292
     24          6           0        2.721849    3.191900    1.004139
     25          1           0        2.323061    3.620469    1.923942
     26          1           0        3.113822    2.191475    1.186093
     27          1           0        3.492302    3.844089    0.591435
     28          6           0        0.525406    2.192111    0.619777
     29          1           0        1.036193    1.303014    0.987701
     30          1           0        0.117797    2.742301    1.470514
     31          6           0       -0.620280    1.788493   -0.308147
     32          1           0       -1.053750    2.664959   -0.815164
     33          1           0       -0.264829    1.095419   -1.082606
     34          8           0       -1.548737    1.175241    0.550582
     35          1           0       -2.207436    0.678446    0.009347
     36          6           0        5.644133   -2.765842   -0.018976
     37          1           0        6.468264   -2.212382   -0.490790
     38          1           0        5.872285   -2.916307    1.044745
     39          6           0        4.342754   -1.989991   -0.160012
     40          1           0        4.142952   -1.828888   -1.230382
     41          6           0        4.358396   -0.649630    0.562878
     42          1           0        5.037637    0.052412    0.071333
     43          1           0        4.677824   -0.788203    1.604001
     44          8           0        3.046958   -0.065906    0.534975
     45          1           0        2.440214   -0.802306    0.725090
     46          8           0        3.258130   -2.713223    0.421804
     47          1           0        3.296237   -3.623143    0.090147
     48          8           0        5.413808   -4.011829   -0.675322
     49          1           0        6.139802   -4.622621   -0.497763
 ---------------------------------------------------------------------
                    Distance matrix (angstroms):
                    1          2          3          4          5
     1  C    0.000000
     2  H    1.099061   0.000000
     3  H    1.098283   1.791438   0.000000
     4  C    1.521413   2.161884   2.155710   0.000000
     5  H    2.144929   2.470405   3.057682   1.100435   0.000000
     6  C    2.540489   2.824028   2.765134   1.522032   2.155584
     7  H    2.878526   2.728549   3.225635   2.171226   2.461611
     8  H    2.742935   3.112290   2.512353   2.162413   3.067419
     9  O    3.786700   4.160848   4.048646   2.422051   2.718858
    10  H    3.852955   4.452569   4.071022   2.429324   2.793460
    11  O    2.427197   3.374788   2.693839   1.428335   2.073342
    12  H    2.508862   3.524751   2.847406   1.955387   2.376614
    13  O    1.427837   2.093733   2.090229   2.348103   2.589754
    14  H    1.979929   2.433330   2.311577   3.206150   3.515164
    15  N    9.261862   9.203749   9.754853   7.945115   7.570365
    16  C    9.636513   9.720349  10.009129   8.251440   8.024471
    17  H    9.070279   9.174552   9.345922   7.721112   7.625851
    18  H   10.679325  10.739826  11.026258   9.311277   9.099284
    19  H    9.619816   9.800267  10.024907   8.168629   7.902532
    20  C    9.494860   9.297804   9.931721   8.315762   8.009239
    21  H    8.883546   8.693720   9.228884   7.750673   7.569088
    22  H    9.429499   9.126024   9.945467   8.332365   7.928905
    23  H   10.537898  10.346042  10.938118   9.355429   9.078153
    24  C   10.353039  10.276546  10.937593   9.026815   8.521269
    25  H   10.279591  10.107842  10.936411   9.028926   8.432899
    26  H   10.386506  10.404408  10.995758   8.997529   8.459305
    27  H   11.301309  11.214345  11.840582   9.980716   9.524050
    28  C    7.922055   7.882103   8.495332   6.593274   6.133552
    29  H    8.132676   8.194054   8.753946   6.733824   6.202172
    30  H    7.874728   7.699818   8.531538   6.655278   6.084898
    31  C    6.727554   6.752232   7.188678   5.393273   5.121488
    32  H    6.815896   6.734836   7.182852   5.613458   5.466774
    33  H    6.928051   7.112628   7.288918   5.515917   5.376822
    34  O    5.616103   5.626784   6.217219   4.289617   3.851629
    35  H    4.825327   4.946278   5.349676   3.450591   3.182877
    36  C   12.545512  13.030084  13.027863  11.042288  10.656564
    37  H   13.313638  13.767387  13.767459  11.798338  11.440374
    38  H   12.813993  13.266440  13.372458  11.330949  10.850339
    39  C   11.163068  11.614673  11.641924   9.649824   9.278439
    40  H   11.043673  11.525866  11.428479   9.525288   9.272363
    41  C   11.123938  11.437521  11.675039   9.621388   9.155448
    42  H   11.836770  12.113241  12.347975  10.333913   9.911435
    43  H   11.514607  11.794970  12.144350  10.039062   9.471008
    44  O    9.844964  10.106471  10.404604   8.352517   7.885428
    45  H    9.210784   9.534396   9.790008   7.713975   7.229217
    46  O   10.180409  10.681445  10.702551   8.691818   8.278117
    47  H   10.418198  11.002233  10.894331   8.951618   8.597515
    48  O   12.599093  13.189860  13.014077  11.119155  10.818272
    49  H   13.446386  14.051969  13.870494  11.979509  11.661932
                    6          7          8          9         10
     6  C    0.000000
     7  H    1.092716   0.000000
     8  H    1.096966   1.785035   0.000000
     9  O    1.436265   2.043826   2.073603   0.000000
    10  H    1.944143   2.817928   2.410725   0.972209   0.000000
    11  O    2.344103   3.310216   2.662322   2.668532   2.130182
    12  H    3.193766   4.068943   3.500088   3.598824   3.038436
    13  O    3.735350   4.147945   4.023946   4.762379   4.621010
    14  H    4.478486   4.831723   4.615925   5.605329   5.482787
    15  N    7.015158   6.720314   7.672854   5.932826   6.434646
    16  C    7.251739   7.141900   7.770153   6.016924   6.383231
    17  H    6.602423   6.522778   7.006883   5.389665   5.789332
    18  H    8.266609   8.125883   8.738965   7.050606   7.425675
    19  H    7.313768   7.333025   7.876887   5.987724   6.201656
    20  C    7.231734   6.758321   7.802912   6.341967   7.005796
    21  H    6.546881   6.072237   7.013014   5.713195   6.428331
    22  H    7.332370   6.736186   7.983189   6.586328   7.308737
    23  H    8.230807   7.773409   8.745106   7.312109   7.950559
    24  C    8.244907   7.940072   8.986593   7.165218   7.603320
    25  H    8.320188   7.908059   9.130434   7.369938   7.871203
    26  H    8.338510   8.154956   9.112025   7.173720   7.482477
    27  H    9.116394   8.798400   9.795458   8.024273   8.474591
    28  C    5.810872   5.540095   6.589355   4.763122   5.255130
    29  H    6.139782   6.014008   6.968267   4.998841   5.311560
    30  H    5.951047   5.514102   6.803779   5.109565   5.693939
    31  C    4.445094   4.250838   5.137361   3.359635   3.927976
    32  H    4.450956   4.091723   5.005331   3.561120   4.295035
    33  H    4.558053   4.607298   5.125431   3.264200   3.629446
    34  O    3.603716   3.398894   4.499648   2.695412   3.268683
    35  H    2.695699   2.675936   3.572528   1.711788   2.321336
    36  C   10.782996  11.166601  11.398115   9.406325   9.090332
    37  H   11.427450  11.768751  12.009652  10.024552   9.766735
    38  H   11.170823  11.515501  11.861967   9.838227   9.534865
    39  C    9.322840   9.677047   9.946835   7.938912   7.675128
    40  H    9.077756   9.472427   9.600671   7.657742   7.386931
    41  C    9.208482   9.392853   9.914032   7.858863   7.772255
    42  H    9.790667   9.923488  10.448211   8.425000   8.407081
    43  H    9.741578   9.886519  10.522345   8.449845   8.367208
    44  O    7.879150   8.006171   8.611029   6.553842   6.556881
    45  H    7.376745   7.589288   8.134305   6.063925   5.965815
    46  O    8.552732   8.975846   9.224814   7.229951   6.868419
    47  H    8.890605   9.411087   9.505333   7.584445   7.112297
    48  O   10.940626  11.451005  11.479413   9.577109   9.130034
    49  H   11.850840  12.372492  12.393811  10.500471  10.031041
                   11         12         13         14         15
    11  O    0.000000
    12  H    0.968921   0.000000
    13  O    2.749876   2.294963   0.000000
    14  H    3.578041   3.080613   0.965079   0.000000
    15  N    8.335134   9.108342  10.133255  11.026688   0.000000
    16  C    8.424489   9.234597  10.526523  11.429658   1.507117
    17  H    7.886877   8.749974  10.045012  10.920356   2.128020
    18  H    9.487467  10.307730  11.596916  12.493203   2.118732
    19  H    8.193146   8.946333  10.394942  11.325169   2.115714
    20  C    8.886740   9.709075  10.500535  11.336030   1.502971
    21  H    8.335601   9.204282   9.977433  10.783258   2.129193
    22  H    9.040264   9.818451  10.403117  11.216499   2.122145
    23  H    9.886615  10.723570  11.563331  12.396754   2.120186
    24  C    9.402232  10.100578  11.110305  12.019991   1.507635
    25  H    9.534708  10.193047  11.004950  11.893833   2.123352
    26  H    9.235887   9.881306  11.038608  11.974008   2.114692
    27  H   10.345752  11.074862  12.108680  13.012253   2.124793
    28  C    7.016748   7.741502   8.715349   9.620533   1.522433
    29  H    6.995360   7.643777   8.779446   9.716462   2.105164
    30  H    7.263098   7.940505   8.647274   9.523804   2.112795
    31  C    5.803239   6.613290   7.637052   8.524192   2.585889
    32  H    6.165673   7.032944   7.876064   8.705511   2.807841
    33  H    5.665556   6.498385   7.811335   8.711176   2.929324
    34  O    4.820984   5.548236   6.419354   7.319772   3.719033
    35  H    3.925522   4.712939   5.682780   6.580087   4.499949
    36  C   10.514762  10.914658  12.802468  13.749014   7.104727
    37  H   11.312510  11.768734  13.650081  14.601152   7.204462
    38  H   10.850039  11.190242  12.991400  13.937931   7.432345
    39  C    9.194916   9.657168  11.499565  12.453464   5.762790
    40  H    9.024921   9.554105  11.470716  12.414752   5.660575
    41  C    9.389072   9.904127  11.540918  12.505591   4.668928
    42  H   10.147803  10.723104  12.344561  13.307289   4.578164
    43  H    9.848866  10.294798  11.841690  12.804624   5.192719
    44  O    8.234974   8.803462  10.337489  11.300630   3.499472
    45  H    7.513355   8.023497   9.613372  10.578278   4.033289
    46  O    8.170186   8.540023  10.391124  11.337607   6.036348
    47  H    8.286344   8.596396  10.554873  11.481376   6.910919
    48  O   10.420782  10.762280  12.782261  13.703334   8.076958
    49  H   11.250845  11.549104  13.574699  14.487643   8.951149
                   16         17         18         19         20
    16  C    0.000000
    17  H    1.088772   0.000000
    18  H    1.090652   1.781159   0.000000
    19  H    1.090794   1.797905   1.794785   0.000000
    20  C    2.462501   2.659760   2.699367   3.397480   0.000000
    21  H    2.692357   2.427616   3.061101   3.669874   1.088214
    22  H    3.404962   3.661245   3.684157   4.215250   1.090085
    23  H    2.681789   2.984054   2.457351   3.681144   1.090293
    24  C    2.449682   3.395934   2.629174   2.684619   2.451470
    25  H    3.394459   4.222264   3.635580   3.663996   2.680705
    26  H    2.644824   3.658625   2.933699   2.414571   3.388645
    27  H    2.678357   3.648727   2.390754   3.061695   2.653941
    28  C    2.493406   2.772692   3.426069   2.658609   2.492925
    29  H    2.757703   3.225706   3.690802   2.478109   3.396308
    30  H    3.410977   3.710125   4.213849   3.669688   2.630092
    31  C    2.997439   2.691495   4.031840   3.199221   3.148440
    32  H    3.233756   2.701577   4.125700   3.743153   2.817571
    33  H    2.771152   2.303892   3.829443   2.767533   3.692100
    34  O    4.306261   4.076853   5.358383   4.332766   4.272355
    35  H    4.867645   4.461464   5.931885   4.860201   5.000763
    36  C    6.408854   7.033326   6.610473   5.363357   8.549584
    37  H    6.411058   7.077870   6.430180   5.438804   8.579510
    38  H    6.934575   7.644616   7.159831   5.900532   8.896402
    39  C    5.081487   5.655353   5.437220   4.003125   7.226256
    40  H    4.729400   5.158101   5.049189   3.679742   7.054108
    41  C    4.228433   5.019686   4.523416   3.230336   6.129764
    42  H    3.991586   4.857771   4.022486   3.111597   5.936768
    43  H    5.015591   5.877158   5.301456   4.089080   6.639226
    44  O    3.225076   3.954083   3.798795   2.243383   4.999579
    45  H    3.827211   4.380861   4.552086   2.847916   5.522670
    46  O    5.549585   6.009201   6.134939   4.471583   7.524145
    47  H    6.333649   6.705169   6.911780   5.254240   8.383195
    48  O    7.272010   7.738626   7.546894   6.206934   9.520477
    49  H    8.165339   8.664071   8.391085   7.106983  10.396434
                   21         22         23         24         25
    21  H    0.000000
    22  H    1.784442   0.000000
    23  H    1.782565   1.786810   0.000000
    24  C    3.400711   2.677432   2.658861   0.000000
    25  H    3.677697   2.443014   3.014591   1.090294   0.000000
    26  H    4.217137   3.670878   3.643922   1.089771   1.792135
    27  H    3.648739   2.998639   2.393484   1.090538   1.786814
    28  C    2.748793   2.694284   3.429930   2.443701   2.640571
    29  H    3.755302   3.614484   4.199570   2.531718   2.811258
    30  H    2.990758   2.366498   3.622108   2.683418   2.416602
    31  C    2.828451   3.483990   4.133923   3.855058   4.123301
    32  H    2.171673   3.163288   3.787433   4.224059   4.451803
    33  H    3.322864   4.261645   4.524999   4.203568   4.702381
    34  O    4.004690   4.325528   5.325630   4.744527   4.780803
    35  H    4.568500   5.136895   6.030869   5.621825   5.731193
    36  C    8.995770   9.141111   8.713736   6.714253   7.455831
    37  H    9.062842   9.224862   8.605530   6.743642   7.552204
    38  H    9.427884   9.378319   9.090016   6.872924   7.489955
    39  C    7.607840   7.827442   7.490021   5.552889   6.316588
    40  H    7.317602   7.777726   7.275246   5.676348   6.554178
    41  C    6.672511   6.643730   6.352232   4.198851   4.922279
    42  H    6.531007   6.529314   5.972648   4.011158   4.850991
    43  H    7.283689   7.006319   6.879271   4.475142   5.008359
    44  O    5.467980   5.486028   5.400134   3.307433   4.005324
    45  H    5.882885   5.951563   6.058328   4.013835   4.583875
    46  O    7.829228   8.023769   7.974861   5.957952   6.576202
    47  H    8.625542   8.914977   8.835117   6.900008   7.535237
    48  O    9.846314  10.159673   9.739745   7.871527   8.634863
    49  H   10.757577  11.019355  10.583976   8.660534   9.401101
                   26         27         28         29         30
    26  H    0.000000
    27  H    1.796663   0.000000
    28  C    2.649644   3.395925   0.000000
    29  H    2.268318   3.556200   1.089387   0.000000
    30  H    3.059489   3.657048   1.092066   1.774290   0.000000
    31  C    4.042112   4.684875   1.528577   2.158429   2.148986
    32  H    4.647351   4.902597   2.185492   3.077837   2.569597
    33  H    4.214691   4.947083   2.173778   2.453961   3.062196
    34  O    4.814152   5.704077   2.311035   2.624740   2.465621
    35  H    5.655950   6.545772   3.183117   3.445053   3.435290
    36  C    5.694704   6.978121   7.154766   6.229133   7.943463
    37  H    5.784304   6.834355   7.480005   6.637118   8.289996
    38  H    5.806766   7.181418   7.407135   6.418233   8.081785
    39  C    4.561461   5.943436   5.715785   4.805671   6.550074
    40  H    4.802268   5.993749   5.716481   4.937677   6.662768
    41  C    3.163738   4.576510   4.771849   3.876896   5.505604
    42  H    3.085344   4.127394   5.023876   4.291304   5.779103
    43  H    3.391052   4.887625   5.205146   4.244348   5.768546
    44  O    2.350360   3.935680   3.385861   2.474283   4.164282
    45  H    3.103062   4.765893   3.555856   2.544133   4.302734
    46  O    4.965987   6.563684   5.618654   4.624652   6.381554
    47  H    5.919810   7.486607   6.463373   5.493671   7.247536
    48  O    6.872829   8.186104   8.003913   7.083552   8.847068
    49  H    7.643548   8.937605   8.900051   7.960313   9.714975
                   31         32         33         34         35
    31  C    0.000000
    32  H    1.101433   0.000000
    33  H    1.098401   1.776901   0.000000
    34  O    1.405534   2.080753   2.078965   0.000000
    35  H    1.962669   2.440706   2.267146   0.986724   0.000000
    36  C    7.750384   8.659628   7.138381   8.221552   8.573859
    37  H    8.141733   8.970751   7.525047   8.765429   9.158318
    38  H    8.131350   9.087340   7.634379   8.488612   8.903718
    39  C    6.239438   7.156818   5.621455   6.725571   7.074901
    40  H    6.051805   6.882789   5.291686   6.677720   6.939098
    41  C    5.611626   6.494369   5.208361   6.182599   6.721632
    42  H    5.930431   6.687023   5.525901   6.698563   7.272334
    43  H    6.193995   7.115309   5.932597   6.613234   7.218087
    44  O    4.195031   5.108454   3.864347   4.760368   5.332823
    45  H    4.140826   5.157722   3.766481   4.455657   4.930067
    46  O    5.986680   7.003374   5.401874   6.184069   6.445615
    47  H    6.692051   7.699494   6.026721   6.834491   6.985744
    48  O    8.377874   9.296685   7.648319   8.768442   8.975010
    49  H    9.318640  10.244840   8.605656   9.686478   9.901255
                   36         37         38         39         40
    36  C    0.000000
    37  H    1.099144   0.000000
    38  H    1.098269   1.791248   0.000000
    39  C    1.521651   2.162560   2.156146   0.000000
    40  H    2.144512   2.470049   3.057659   1.100712   0.000000
    41  C    2.543625   2.829126   2.768010   1.522952   2.157046
    42  H    2.884189   2.737146   3.233800   2.169745   2.456463
    43  H    2.734751   3.101953   2.503664   2.160627   3.066405
    44  O    3.787061   4.167120   4.045630   2.421610   2.725031
    45  H    3.830692   4.437552   4.043549   2.411153   2.788738
    46  O    2.426946   3.374704   2.695015   1.427580   2.072360
    47  H    2.501897   3.519871   2.836705   1.955751   2.383291
    48  O    1.426998   2.093786   2.090215   2.345321   2.586194
    49  H    1.980544   2.432527   2.315686   3.205339   3.511280
                   41         42         43         44         45
    41  C    0.000000
    42  H    1.093548   0.000000
    43  H    1.097804   1.784705   0.000000
    44  O    1.435751   2.047380   2.079484   0.000000
    45  H    1.931074   2.811503   2.404076   0.972917   0.000000
    46  O    2.342841   3.307297   2.668112   2.658136   2.100612
    47  H    3.192716   4.067251   3.498203   3.593598   3.015468
    48  O    3.735159   4.149344   4.016062   4.757847   4.593958
    49  H    4.481409   4.836794   4.610591   5.603203   5.456842
                   46         47         48         49
    46  O    0.000000
    47  H    0.969228   0.000000
    48  O    2.745362   2.284978   0.000000
    49  H    3.577071   3.070905   0.965226   0.000000
 Stoichiometry    C11H30NO7(1+)
 Framework group  C1[X(C11H30NO7)]
 Deg. of freedom   141
 Full point group                 C1      NOp   1
 Largest Abelian subgroup         C1      NOp   1
 Largest concise Abelian subgroup C1      NOp   1
                         Standard orientation:                         
 ---------------------------------------------------------------------
 Center     Atomic      Atomic             Coordinates (Angstroms)
 Number     Number       Type             X           Y           Z
 ---------------------------------------------------------------------
      1          6           0        6.758846   -0.902612   -0.271462
      2          1           0        7.056696    0.042019   -0.747794
      3          1           0        7.242154   -0.980082    0.711715
      4          6           0        5.247353   -0.951379   -0.105004
      5          1           0        4.779337   -0.849861   -1.095768
      6          6           0        4.711755    0.129226    0.823441
      7          1           0        4.817865    1.121399    0.378063
      8          1           0        5.244771    0.104858    1.781895
      9          8           0        3.310247   -0.079248    1.058326
     10          1           0        3.201097   -1.034609    1.201719
     11          8           0        4.844217   -2.186901    0.487539
     12          1           0        5.269621   -2.904123   -0.005849
     13          8           0        7.088259   -2.022763   -1.093331
     14          1           0        8.044495   -2.151725   -1.112261
     15          7           0       -1.600632    3.075970   -0.002942
     16          6           0       -2.142529    2.456515    1.259605
     17          1           0       -1.357137    2.441005    2.013490
     18          1           0       -2.974502    3.068556    1.609959
     19          1           0       -2.479625    1.446812    1.021490
     20          6           0       -1.064233    4.448356    0.293294
     21          1           0       -0.267434    4.374968    1.030814
     22          1           0       -0.679270    4.881979   -0.629777
     23          1           0       -1.875398    5.062431    0.685292
     24          6           0       -2.721849    3.191900   -1.004139
     25          1           0       -2.323061    3.620469   -1.923942
     26          1           0       -3.113822    2.191475   -1.186093
     27          1           0       -3.492302    3.844089   -0.591435
     28          6           0       -0.525406    2.192111   -0.619777
     29          1           0       -1.036193    1.303014   -0.987701
     30          1           0       -0.117797    2.742301   -1.470514
     31          6           0        0.620280    1.788493    0.308147
     32          1           0        1.053750    2.664959    0.815164
     33          1           0        0.264829    1.095419    1.082606
     34          8           0        1.548737    1.175241   -0.550582
     35          1           0        2.207436    0.678446   -0.009347
     36          6           0       -5.644133   -2.765842    0.018976
     37          1           0       -6.468264   -2.212382    0.490790
     38          1           0       -5.872285   -2.916307   -1.044745
     39          6           0       -4.342754   -1.989991    0.160012
     40          1           0       -4.142952   -1.828888    1.230382
     41          6           0       -4.358396   -0.649630   -0.562878
     42          1           0       -5.037637    0.052412   -0.071333
     43          1           0       -4.677824   -0.788203   -1.604001
     44          8           0       -3.046958   -0.065906   -0.534975
     45          1           0       -2.440214   -0.802306   -0.725090
     46          8           0       -3.258130   -2.713223   -0.421804
     47          1           0       -3.296237   -3.623143   -0.090147
     48          8           0       -5.413808   -4.011829    0.675322
     49          1           0       -6.139802   -4.622621    0.497763
 ---------------------------------------------------------------------
 Rotational constants (GHZ):           0.2940515           0.1002328           0.0781351
 Leave Link  202 at Wed Apr 01 13:38:14 2026, MaxMem=  8589934592 cpu:               0.0 elap:               0.3
 (Enter C:\G16W\l301.exe)
 Standard basis: 6-31+G(d,p) (6D, 7F)
 Ernie: Thresh=  0.10000D-02 Tol=  0.10000D-05 Strict=F.
 There are   511 symmetry adapted cartesian basis functions of A   symmetry.
 There are   511 symmetry adapted basis functions of A   symmetry.
   511 basis functions,   818 primitive gaussians,   511 cartesian basis functions
    79 alpha electrons       79 beta electrons
       nuclear repulsion energy      1525.2915954055 Hartrees.
 IExCor=  402 DFT=T Ex+Corr=B3LYP ExCW=0 ScaHFX=  0.200000
 ScaDFX=  0.800000  0.720000  1.000000  0.810000 ScalE2=  1.000000  1.000000
 IRadAn=      5 IRanWt=     -1 IRanGd=            0 ICorTp=0 IEmpDi=141
 NAtoms=   49 NActive=   49 NUniq=   49 SFac= 1.00D+00 NAtFMM=   60 NAOKFM=F Big=F
 Integral buffers will be    131072 words long.
 Raffenetti 2 integral format.
 Two-electron integral symmetry is turned on.
 R6Disp:  Grimme-D3(BJ) Dispersion energy=       -0.0702488526 Hartrees.
 Nuclear repulsion after empirical dispersion term =     1525.2213465528 Hartrees.
 Leave Link  301 at Wed Apr 01 13:38:14 2026, MaxMem=  8589934592 cpu:               0.0 elap:               0.3
 (Enter C:\G16W\l302.exe)
 NPDir=0 NMtPBC=     1 NCelOv=     1 NCel=       1 NClECP=     1 NCelD=      1
         NCelK=      1 NCelE2=     1 NClLst=     1 CellRange=     0.0.
 One-electron integrals computed using PRISM.
 One-electron integral symmetry used in STVInt
 NBasis=   511 RedAO= T EigKep=  2.27D-05  NBF=   511
 NBsUse=   511 1.00D-06 EigRej= -1.00D+00 NBFU=   511
 Precomputing XC quadrature grid using
 IXCGrd= 4 IRadAn=           5 IRanWt=          -1 IRanGd=           0 AccXCQ= 0.00D+00.
 Generated NRdTot=       0 NPtTot=           0 NUsed=           0 NTot=          32
 NSgBfM=   491   491   491   491   491 MxSgAt=    49 MxSgA2=    49.
 Leave Link  302 at Wed Apr 01 13:38:16 2026, MaxMem=  8589934592 cpu:               2.0 elap:               1.9
 (Enter C:\G16W\l303.exe)
 DipDrv:  MaxL=1.
 Leave Link  303 at Wed Apr 01 13:38:17 2026, MaxMem=  8589934592 cpu:               1.0 elap:               0.3
 (Enter C:\G16W\l401.exe)
 ExpMin= 4.38D-02 ExpMax= 5.48D+03 ExpMxC= 8.25D+02 IAcc=3 IRadAn=         5 AccDes= 0.00D+00
 Harris functional with IExCor=  402 and IRadAn=       5 diagonalized for initial guess.
 HarFok:  IExCor=  402 AccDes= 0.00D+00 IRadAn=         5 IDoV= 1 UseB2=F ITyADJ=14
 ICtDFT=  3500011 ScaDFX=  1.000000  1.000000  1.000000  1.000000
 FoFCou: FMM=F IPFlag=           0 FMFlag=      100000 FMFlg1=           0
         NFxFlg=           0 DoJE=T BraDBF=F KetDBF=T FulRan=T
         wScrn=  0.000000 ICntrl=       500 IOpCl=  0 I1Cent=   200000004 NGrid=           0
         NMat0=    1 NMatS0=      1 NMatT0=    0 NMatD0=    1 NMtDS0=    0 NMtDT0=    0
 Petite list used in FoFCou.
 Harris En= -1018.47751365077    
 JPrj=0 DoOrth=F DoCkMO=F.
 Leave Link  401 at Wed Apr 01 13:38:21 2026, MaxMem=  8589934592 cpu:               4.0 elap:               4.3
 (Enter C:\G16W\l502.exe)
 Integral symmetry usage will be decided dynamically.
 Closed shell SCF:
 Using DIIS extrapolation, IDIIS=  1040.
 NGot=  8589934592 LenX=  8589397600 LenY=  8589135968
 Requested convergence on RMS density matrix=1.00D-08 within 128 cycles.
 Requested convergence on MAX density matrix=1.00D-06.
 Requested convergence on             energy=1.00D-06.
 No special actions if energy rises.
 Fock matrices will be formed incrementally for  20 cycles.

 Cycle   1  Pass 1  IDiag  1:
 FoFJK:  IHMeth= 1 ICntrl=       0 DoSepK=F KAlg= 0 I1Cent=           0 FoldK=F
 IRaf= 670000000 NMat=       1 IRICut=       1 DoRegI=T DoRafI=F ISym2E= 0 IDoP0=0 IntGTp=1.
 FoFCou: FMM=F IPFlag=           0 FMFlag=      100000 FMFlg1=           0
         NFxFlg=           0 DoJE=F BraDBF=F KetDBF=F FulRan=T
         wScrn=  0.000000 ICntrl=         0 IOpCl=  0 I1Cent=           0 NGrid=           0
         NMat0=    1 NMatS0=      1 NMatT0=    0 NMatD0=    1 NMtDS0=    0 NMtDT0=    0
 Symmetry not used in FoFCou.
 E= -1017.97021894800    
 DIIS: error= 1.72D-02 at cycle   1 NSaved=   1.
 NSaved= 1 IEnMin= 1 EnMin= -1017.97021894800     IErMin= 1 ErrMin= 1.72D-02
 ErrMax= 1.72D-02  0.00D+00 EMaxC= 1.00D-01 BMatC= 5.68D-01 BMatP= 5.68D-01
 IDIUse=3 WtCom= 8.28D-01 WtEn= 1.72D-01
 Coeff-Com:  0.100D+01
 Coeff-En:   0.100D+01
 Coeff:      0.100D+01
 Gap=     0.217 Goal=   None    Shift=    0.000
 GapD=    0.217 DampG=1.000 DampE=0.500 DampFc=0.5000 IDamp=-1.
 Damping current iteration by 5.00D-01
 RMSDP=7.82D-03 MaxDP=1.44D+00              OVMax= 1.94D-01

 Cycle   2  Pass 1  IDiag  1:
 RMSU=  3.89D-03    CP:  1.03D+00
 E= -1018.13946426284     Delta-E=       -0.169245314840 Rises=F Damp=T
 DIIS: error= 5.80D-03 at cycle   2 NSaved=   2.
 NSaved= 2 IEnMin= 2 EnMin= -1018.13946426284     IErMin= 2 ErrMin= 5.80D-03
 ErrMax= 5.80D-03  0.00D+00 EMaxC= 1.00D-01 BMatC= 5.81D-02 BMatP= 5.68D-01
 IDIUse=3 WtCom= 9.42D-01 WtEn= 5.80D-02
 Coeff-Com:  0.169D+00 0.831D+00
 Coeff-En:   0.268D+00 0.732D+00
 Coeff:      0.175D+00 0.825D+00
 Gap=     0.275 Goal=   None    Shift=    0.000
 RMSDP=2.76D-03 MaxDP=5.75D-01 DE=-1.69D-01 OVMax= 1.32D-01

 Cycle   3  Pass 1  IDiag  1:
 RMSU=  1.60D-03    CP:  9.76D-01  4.50D-01
 E= -1018.43935414471     Delta-E=       -0.299889881876 Rises=F Damp=F
 DIIS: error= 2.76D-03 at cycle   3 NSaved=   3.
 NSaved= 3 IEnMin= 3 EnMin= -1018.43935414471     IErMin= 3 ErrMin= 2.76D-03
 ErrMax= 2.76D-03  0.00D+00 EMaxC= 1.00D-01 BMatC= 1.89D-02 BMatP= 5.81D-02
 IDIUse=3 WtCom= 9.72D-01 WtEn= 2.76D-02
 Coeff-Com:  0.213D-01 0.350D+00 0.629D+00
 Coeff-En:   0.000D+00 0.000D+00 0.100D+01
 Coeff:      0.207D-01 0.340D+00 0.639D+00
 Gap=     0.247 Goal=   None    Shift=    0.000
 RMSDP=5.32D-04 MaxDP=4.33D-02 DE=-3.00D-01 OVMax= 1.77D-02

 Cycle   4  Pass 1  IDiag  1:
 RMSU=  4.96D-04    CP:  9.79D-01  4.94D-01  9.51D-01
 E= -1018.45190227475     Delta-E=       -0.012548130039 Rises=F Damp=F
 DIIS: error= 1.96D-03 at cycle   4 NSaved=   4.
 NSaved= 4 IEnMin= 4 EnMin= -1018.45190227475     IErMin= 4 ErrMin= 1.96D-03
 ErrMax= 1.96D-03  0.00D+00 EMaxC= 1.00D-01 BMatC= 3.59D-03 BMatP= 1.89D-02
 IDIUse=3 WtCom= 9.80D-01 WtEn= 1.96D-02
 Coeff-Com: -0.602D-02 0.783D-01 0.331D+00 0.597D+00
 Coeff-En:   0.000D+00 0.000D+00 0.155D+00 0.845D+00
 Coeff:     -0.591D-02 0.768D-01 0.328D+00 0.601D+00
 Gap=     0.246 Goal=   None    Shift=    0.000
 RMSDP=2.42D-04 MaxDP=2.99D-02 DE=-1.25D-02 OVMax= 6.37D-03

 Cycle   5  Pass 1  IDiag  1:
 RMSU=  1.39D-04    CP:  9.77D-01  4.75D-01  9.62D-01  6.35D-01
 E= -1018.45510608623     Delta-E=       -0.003203811479 Rises=F Damp=F
 DIIS: error= 2.21D-04 at cycle   5 NSaved=   5.
 NSaved= 5 IEnMin= 5 EnMin= -1018.45510608623     IErMin= 5 ErrMin= 2.21D-04
 ErrMax= 2.21D-04  0.00D+00 EMaxC= 1.00D-01 BMatC= 8.47D-05 BMatP= 3.59D-03
 IDIUse=3 WtCom= 9.98D-01 WtEn= 2.21D-03
 Coeff-Com: -0.307D-02 0.939D-02 0.813D-01 0.217D+00 0.695D+00
 Coeff-En:   0.000D+00 0.000D+00 0.000D+00 0.000D+00 0.100D+01
 Coeff:     -0.307D-02 0.937D-02 0.812D-01 0.217D+00 0.696D+00
 Gap=     0.247 Goal=   None    Shift=    0.000
 RMSDP=4.36D-05 MaxDP=3.65D-03 DE=-3.20D-03 OVMax= 1.53D-03

 Cycle   6  Pass 1  IDiag  1:
 RMSU=  3.04D-05    CP:  9.77D-01  4.77D-01  9.66D-01  6.63D-01  8.14D-01
 E= -1018.45516220708     Delta-E=       -0.000056120852 Rises=F Damp=F
 DIIS: error= 1.17D-04 at cycle   6 NSaved=   6.
 NSaved= 6 IEnMin= 6 EnMin= -1018.45516220708     IErMin= 6 ErrMin= 1.17D-04
 ErrMax= 1.17D-04  0.00D+00 EMaxC= 1.00D-01 BMatC= 1.66D-05 BMatP= 8.47D-05
 IDIUse=3 WtCom= 9.99D-01 WtEn= 1.17D-03
 Coeff-Com: -0.152D-02 0.204D-02 0.326D-01 0.101D+00 0.408D+00 0.458D+00
 Coeff-En:   0.000D+00 0.000D+00 0.000D+00 0.000D+00 0.469D-01 0.953D+00
 Coeff:     -0.151D-02 0.204D-02 0.325D-01 0.101D+00 0.407D+00 0.459D+00
 Gap=     0.247 Goal=   None    Shift=    0.000
 RMSDP=1.41D-05 MaxDP=1.06D-03 DE=-5.61D-05 OVMax= 6.48D-04

 Cycle   7  Pass 1  IDiag  1:
 RMSU=  9.16D-06    CP:  9.77D-01  4.76D-01  9.68D-01  6.62D-01  8.13D-01
                    CP:  6.92D-01
 E= -1018.45517469982     Delta-E=       -0.000012492741 Rises=F Damp=F
 DIIS: error= 1.80D-05 at cycle   7 NSaved=   7.
 NSaved= 7 IEnMin= 7 EnMin= -1018.45517469982     IErMin= 7 ErrMin= 1.80D-05
 ErrMax= 1.80D-05  0.00D+00 EMaxC= 1.00D-01 BMatC= 4.15D-07 BMatP= 1.66D-05
 IDIUse=1 WtCom= 1.00D+00 WtEn= 0.00D+00
 Coeff-Com: -0.372D-03 0.105D-03 0.752D-02 0.268D-01 0.122D+00 0.195D+00
 Coeff-Com:  0.649D+00
 Coeff:     -0.372D-03 0.105D-03 0.752D-02 0.268D-01 0.122D+00 0.195D+00
 Coeff:      0.649D+00
 Gap=     0.247 Goal=   None    Shift=    0.000
 RMSDP=3.00D-06 MaxDP=2.11D-04 DE=-1.25D-05 OVMax= 1.06D-04

 Cycle   8  Pass 1  IDiag  1:
 RMSU=  2.17D-06    CP:  9.77D-01  4.77D-01  9.67D-01  6.64D-01  8.17D-01
                    CP:  6.97D-01  8.65D-01
 E= -1018.45517497603     Delta-E=       -0.000000276207 Rises=F Damp=F
 DIIS: error= 6.20D-06 at cycle   8 NSaved=   8.
 NSaved= 8 IEnMin= 8 EnMin= -1018.45517497603     IErMin= 8 ErrMin= 6.20D-06
 ErrMax= 6.20D-06  0.00D+00 EMaxC= 1.00D-01 BMatC= 4.97D-08 BMatP= 4.15D-07
 IDIUse=1 WtCom= 1.00D+00 WtEn= 0.00D+00
 Coeff-Com: -0.417D-04-0.130D-03 0.773D-03 0.412D-02 0.219D-01 0.530D-01
 Coeff-Com:  0.314D+00 0.606D+00
 Coeff:     -0.417D-04-0.130D-03 0.773D-03 0.412D-02 0.219D-01 0.530D-01
 Coeff:      0.314D+00 0.606D+00
 Gap=     0.247 Goal=   None    Shift=    0.000
 RMSDP=1.35D-06 MaxDP=2.34D-04 DE=-2.76D-07 OVMax= 2.76D-05

 Cycle   9  Pass 1  IDiag  1:
 RMSU=  6.14D-07    CP:  9.77D-01  4.76D-01  9.68D-01  6.64D-01  8.18D-01
                    CP:  7.03D-01  8.68D-01  7.82D-01
 E= -1018.45517502043     Delta-E=       -0.000000044398 Rises=F Damp=F
 DIIS: error= 1.34D-06 at cycle   9 NSaved=   9.
 NSaved= 9 IEnMin= 9 EnMin= -1018.45517502043     IErMin= 9 ErrMin= 1.34D-06
 ErrMax= 1.34D-06  0.00D+00 EMaxC= 1.00D-01 BMatC= 2.39D-09 BMatP= 4.97D-08
 IDIUse=1 WtCom= 1.00D+00 WtEn= 0.00D+00
 Coeff-Com:  0.168D-04-0.610D-04-0.317D-03-0.544D-03-0.153D-02 0.486D-02
 Coeff-Com:  0.662D-01 0.236D+00 0.695D+00
 Coeff:      0.168D-04-0.610D-04-0.317D-03-0.544D-03-0.153D-02 0.486D-02
 Coeff:      0.662D-01 0.236D+00 0.695D+00
 Gap=     0.247 Goal=   None    Shift=    0.000
 RMSDP=2.28D-07 MaxDP=1.10D-05 DE=-4.44D-08 OVMax= 7.18D-06

 Cycle  10  Pass 1  IDiag  1:
 RMSU=  1.23D-07    CP:  9.77D-01  4.76D-01  9.68D-01  6.64D-01  8.18D-01
                    CP:  7.05D-01  8.79D-01  7.84D-01  7.95D-01
 E= -1018.45517502249     Delta-E=       -0.000000002066 Rises=F Damp=F
 DIIS: error= 6.40D-07 at cycle  10 NSaved=  10.
 NSaved=10 IEnMin=10 EnMin= -1018.45517502249     IErMin=10 ErrMin= 6.40D-07
 ErrMax= 6.40D-07  0.00D+00 EMaxC= 1.00D-01 BMatC= 2.84D-10 BMatP= 2.39D-09
 IDIUse=1 WtCom= 1.00D+00 WtEn= 0.00D+00
 Coeff-Com:  0.972D-05-0.288D-04-0.200D-03-0.435D-03-0.168D-02 0.527D-03
 Coeff-Com:  0.233D-01 0.103D+00 0.372D+00 0.503D+00
 Coeff:      0.972D-05-0.288D-04-0.200D-03-0.435D-03-0.168D-02 0.527D-03
 Coeff:      0.233D-01 0.103D+00 0.372D+00 0.503D+00
 Gap=     0.247 Goal=   None    Shift=    0.000
 RMSDP=6.01D-08 MaxDP=1.03D-05 DE=-2.07D-09 OVMax= 2.69D-06

 Cycle  11  Pass 1  IDiag  1:
 RMSU=  3.68D-08    CP:  9.77D-01  4.76D-01  9.68D-01  6.64D-01  8.18D-01
                    CP:  7.06D-01  8.79D-01  7.83D-01  8.09D-01  8.89D-01
 E= -1018.45517502259     Delta-E=       -0.000000000095 Rises=F Damp=F
 DIIS: error= 1.69D-07 at cycle  11 NSaved=  11.
 NSaved=11 IEnMin=11 EnMin= -1018.45517502259     IErMin=11 ErrMin= 1.69D-07
 ErrMax= 1.69D-07  0.00D+00 EMaxC= 1.00D-01 BMatC= 2.12D-11 BMatP= 2.84D-10
 IDIUse=1 WtCom= 1.00D+00 WtEn= 0.00D+00
 Coeff-Com:  0.166D-05-0.234D-05-0.468D-04-0.122D-03-0.569D-03-0.537D-03
 Coeff-Com:  0.421D-03 0.106D-01 0.665D-01 0.233D+00 0.691D+00
 Coeff:      0.166D-05-0.234D-05-0.468D-04-0.122D-03-0.569D-03-0.537D-03
 Coeff:      0.421D-03 0.106D-01 0.665D-01 0.233D+00 0.691D+00
 Gap=     0.247 Goal=   None    Shift=    0.000
 RMSDP=2.28D-08 MaxDP=2.43D-06 DE=-9.50D-11 OVMax= 7.08D-07

 Cycle  12  Pass 1  IDiag  1:
 RMSU=  1.22D-08    CP:  9.77D-01  4.76D-01  9.68D-01  6.64D-01  8.18D-01
                    CP:  7.05D-01  8.79D-01  7.88D-01  8.12D-01  8.74D-01
                    CP:  8.48D-01
 E= -1018.45517502274     Delta-E=       -0.000000000155 Rises=F Damp=F
 DIIS: error= 2.35D-08 at cycle  12 NSaved=  12.
 NSaved=12 IEnMin=12 EnMin= -1018.45517502274     IErMin=12 ErrMin= 2.35D-08
 ErrMax= 2.35D-08  0.00D+00 EMaxC= 1.00D-01 BMatC= 7.73D-13 BMatP= 2.12D-11
 IDIUse=1 WtCom= 1.00D+00 WtEn= 0.00D+00
 Coeff-Com:  0.248D-07 0.556D-06-0.704D-05-0.218D-04-0.115D-03-0.191D-03
 Coeff-Com: -0.818D-03-0.794D-03 0.644D-02 0.552D-01 0.253D+00 0.687D+00
 Coeff:      0.248D-07 0.556D-06-0.704D-05-0.218D-04-0.115D-03-0.191D-03
 Coeff:     -0.818D-03-0.794D-03 0.644D-02 0.552D-01 0.253D+00 0.687D+00
 Gap=     0.247 Goal=   None    Shift=    0.000
 RMSDP=5.15D-09 MaxDP=6.31D-07 DE=-1.55D-10 OVMax= 1.19D-07

 SCF Done:  E(RB3LYP) =  -1018.45517502     A.U. after   12 cycles
            NFock= 12  Conv=0.52D-08     -V/T= 2.0094
 KE= 1.009016437228D+03 PE=-5.411603935223D+03 EE= 1.858910976419D+03
 Leave Link  502 at Wed Apr 01 13:39:48 2026, MaxMem=  8589934592 cpu:              87.0 elap:              87.0
 (Enter C:\G16W\l601.exe)
 Copying SCF densities to generalized density rwf, IOpCl= 0 IROHF=0.

 **********************************************************************

            Population analysis using the SCF Density.

 **********************************************************************

 Orbital symmetries:
       Occupied  (A) (A) (A) (A) (A) (A) (A) (A) (A) (A) (A) (A)
                 (A) (A) (A) (A) (A) (A) (A) (A) (A) (A) (A) (A)
                 (A) (A) (A) (A) (A) (A) (A) (A) (A) (A) (A) (A)
                 (A) (A) (A) (A) (A) (A) (A) (A) (A) (A) (A) (A)
                 (A) (A) (A) (A) (A) (A) (A) (A) (A) (A) (A) (A)
                 (A) (A) (A) (A) (A) (A) (A) (A) (A) (A) (A) (A)
                 (A) (A) (A) (A) (A) (A) (A)
       Virtual   (A) (A) (A) (A) (A) (A) (A) (A) (A) (A) (A) (A)
                 (A) (A) (A) (A) (A) (A) (A) (A) (A) (A) (A) (A)
                 (A) (A) (A) (A) (A) (A) (A) (A) (A) (A) (A) (A)
                 (A) (A) (A) (A) (A) (A) (A) (A) (A) (A) (A) (A)
                 (A) (A) (A) (A) (A) (A) (A) (A) (A) (A) (A) (A)
                 (A) (A) (A) (A) (A) (A) (A) (A) (A) (A) (A) (A)
                 (A) (A) (A) (A) (A) (A) (A) (A) (A) (A) (A) (A)
                 (A) (A) (A) (A) (A) (A) (A) (A) (A) (A) (A) (A)
                 (A) (A) (A) (A) (A) (A) (A) (A) (A) (A) (A) (A)
                 (A) (A) (A) (A) (A) (A) (A) (A) (A) (A) (A) (A)
                 (A) (A) (A) (A) (A) (A) (A) (A) (A) (A) (A) (A)
                 (A) (A) (A) (A) (A) (A) (A) (A) (A) (A) (A) (A)
                 (A) (A) (A) (A) (A) (A) (A) (A) (A) (A) (A) (A)
                 (A) (A) (A) (A) (A) (A) (A) (A) (A) (A) (A) (A)
                 (A) (A) (A) (A) (A) (A) (A) (A) (A) (A) (A) (A)
                 (A) (A) (A) (A) (A) (A) (A) (A) (A) (A) (A) (A)
                 (A) (A) (A) (A) (A) (A) (A) (A) (A) (A) (A) (A)
                 (A) (A) (A) (A) (A) (A) (A) (A) (A) (A) (A) (A)
                 (A) (A) (A) (A) (A) (A) (A) (A) (A) (A) (A) (A)
                 (A) (A) (A) (A) (A) (A) (A) (A) (A) (A) (A) (A)
                 (A) (A) (A) (A) (A) (A) (A) (A) (A) (A) (A) (A)
                 (A) (A) (A) (A) (A) (A) (A) (A) (A) (A) (A) (A)
                 (A) (A) (A) (A) (A) (A) (A) (A) (A) (A) (A) (A)
                 (A) (A) (A) (A) (A) (A) (A) (A) (A) (A) (A) (A)
                 (A) (A) (A) (A) (A) (A) (A) (A) (A) (A) (A) (A)
                 (A) (A) (A) (A) (A) (A) (A) (A) (A) (A) (A) (A)
                 (A) (A) (A) (A) (A) (A) (A) (A) (A) (A) (A) (A)
                 (A) (A) (A) (A) (A) (A) (A) (A) (A) (A) (A) (A)
                 (A) (A) (A) (A) (A) (A) (A) (A) (A) (A) (A) (A)
                 (A) (A) (A) (A) (A) (A) (A) (A) (A) (A) (A) (A)
                 (A) (A) (A) (A) (A) (A) (A) (A) (A) (A) (A) (A)
                 (A) (A) (A) (A) (A) (A) (A) (A) (A) (A) (A) (A)
                 (A) (A) (A) (A) (A) (A) (A) (A) (A) (A) (A) (A)
                 (A) (A) (A) (A) (A) (A) (A) (A) (A) (A) (A) (A)
                 (A) (A) (A) (A) (A) (A) (A) (A) (A) (A) (A) (A)
                 (A) (A) (A) (A) (A) (A) (A) (A) (A) (A) (A) (A)
 The electronic state is 1-A.
 Alpha  occ. eigenvalues --  -19.27445 -19.26471 -19.25648 -19.25604 -19.24637
 Alpha  occ. eigenvalues --  -19.24595 -19.24343 -14.60536 -10.37897 -10.37158
 Alpha  occ. eigenvalues --  -10.36965 -10.36691 -10.36013 -10.34441 -10.34122
 Alpha  occ. eigenvalues --  -10.33454 -10.33017 -10.32790 -10.32306  -1.15635
 Alpha  occ. eigenvalues --   -1.15013  -1.14005  -1.12927  -1.12351  -1.11622
 Alpha  occ. eigenvalues --   -1.10866  -1.09701  -0.89991  -0.88923  -0.88559
 Alpha  occ. eigenvalues --   -0.87045  -0.85809  -0.79682  -0.78057  -0.76855
 Alpha  occ. eigenvalues --   -0.73775  -0.70707  -0.69409  -0.67191  -0.66284
 Alpha  occ. eigenvalues --   -0.64663  -0.64456  -0.63462  -0.61563  -0.61073
 Alpha  occ. eigenvalues --   -0.60150  -0.59658  -0.59538  -0.58374  -0.57953
 Alpha  occ. eigenvalues --   -0.57368  -0.56384  -0.55922  -0.54751  -0.54429
 Alpha  occ. eigenvalues --   -0.54101  -0.53699  -0.53514  -0.52576  -0.52324
 Alpha  occ. eigenvalues --   -0.52099  -0.51673  -0.50846  -0.50533  -0.49712
 Alpha  occ. eigenvalues --   -0.46007  -0.45725  -0.45716  -0.44502  -0.44207
 Alpha  occ. eigenvalues --   -0.44176  -0.42506  -0.39637  -0.38480  -0.38044
 Alpha  occ. eigenvalues --   -0.37811  -0.37750  -0.36951  -0.36546
 Alpha virt. eigenvalues --   -0.11865  -0.09858  -0.09074  -0.08889  -0.08831
 Alpha virt. eigenvalues --   -0.07879  -0.07687  -0.07404  -0.07232  -0.06548
 Alpha virt. eigenvalues --   -0.06425  -0.05811  -0.05581  -0.04783  -0.04172
 Alpha virt. eigenvalues --   -0.04058  -0.03626  -0.03307  -0.03013  -0.02687
 Alpha virt. eigenvalues --   -0.01958  -0.01868  -0.01320  -0.01059  -0.00572
 Alpha virt. eigenvalues --   -0.00173   0.00049   0.00374   0.00676   0.01074
 Alpha virt. eigenvalues --    0.01285   0.01703   0.02254   0.02562   0.03182
 Alpha virt. eigenvalues --    0.03283   0.03605   0.04096   0.04354   0.04708
 Alpha virt. eigenvalues --    0.04800   0.05354   0.05518   0.06005   0.06211
 Alpha virt. eigenvalues --    0.06567   0.06858   0.07105   0.07458   0.08000
 Alpha virt. eigenvalues --    0.08382   0.08554   0.08640   0.09338   0.10374
 Alpha virt. eigenvalues --    0.10527   0.10922   0.11039   0.11658   0.11793
 Alpha virt. eigenvalues --    0.11986   0.12122   0.12617   0.12719   0.12902
 Alpha virt. eigenvalues --    0.13671   0.13776   0.13897   0.14474   0.14681
 Alpha virt. eigenvalues --    0.14885   0.15210   0.15241   0.15884   0.15944
 Alpha virt. eigenvalues --    0.16032   0.16830   0.17140   0.17256   0.17642
 Alpha virt. eigenvalues --    0.18083   0.18289   0.18446   0.18995   0.19271
[...]
 ,-0.00012659,-0.00000313,-0.00001096,0.00003746,-0.00006613,-0.0003412
 3,0.00030712,-0.00029844,-0.00000887,0.00021747,-0.00007450,0.00000417
 ,-0.00002074,0.00002826,-0.00000446,-0.00002601,-0.00001211,-0.0000015
 7,0.00002679,-0.00000455,-0.00012859,0.00016522,-0.00020206,0.00010079
 ,-0.00009584,0.00002818,-0.00016091,0.00035272,0.00021240,0.00002320,0
 .00004381,0.00004794,-0.00022735,-0.00001436,0.00003441,-0.00019474,0.
 00005275,0.00010809,0.00002505,-0.00005779,0.00002067,-0.00040371,-0.0
 0020414,0.00009856,0.00005432,0.00002676,-0.00000743,-0.00001597,-0.00
 002785,-0.00005922,0.00053127,0.00037591,-0.00004400,-0.00027145,-0.00
 027324,-0.00016831,0.00303697,0.00199364,-0.00559408,0.00267935,-0.000
 32232,0.00005721,-0.00095571,0.00113879,-0.00084457,-0.06452306,-0.120
 08954,0.03202662,-0.01285701,-0.00601720,0.01069625,-0.03448507,-0.037
 49929,0.01666588,0.00073421,-0.00686252,-0.00370035,0.00050395,0.00242
 716,0.00034392,-0.00467948,-0.00600941,0.00062099,-0.00152762,0.001198
 32,0.00066184,0.06764785,0.60835081,0.00001524,0.00001326,-0.00002010,
 -0.00000187,-0.00000187,0.00000035,0.00000448,-0.00000173,0.00000757,-
 0.00001784,0.00000054,-0.00003936,0.00000134,0.00000693,0.00001199,0.0
 0006092,-0.00000380,-0.00002497,-0.00000669,0.00000398,-0.00000025,-0.
 00000182,-0.00000120,0.00000465,-0.00007485,0.00000915,0.00008369,0.00
 005284,0.00000755,-0.00006582,-0.00000058,-0.00001147,0.00004936,-0.00
 001507,0.00000895,-0.00002435,-0.00001395,-0.00001998,0.00003493,-0.00
 000012,-0.00000027,-0.00000857,-0.00000872,0.00002566,0.00006763,0.000
 07148,-0.00011962,-0.00002501,0.00002937,-0.00004762,0.00000966,-0.000
 00343,-0.00002147,-0.00000282,-0.00000035,-0.00005199,-0.00019951,-0.0
 0001026,0.00000540,0.00004888,0.00001567,-0.00000871,-0.00000301,-0.00
 000960,0.00001540,0.00000372,-0.00000235,-0.00001234,-0.00001005,-0.00
 007166,0.00003151,-0.00006242,0.00000529,0.00001080,0.00001196,-0.0000
 0718,0.00006301,-0.00002465,0.00000837,-0.00002204,0.00000597,-0.00000
 030,0.00009926,-0.00004939,-0.00000676,0.00001582,-0.00005486,-0.00000
 906,0.00001738,0.00001130,0.00010943,-0.00004330,-0.00017305,0.0000030
 7,0.00000382,0.00004189,-0.00001175,0.00002299,0.00005114,-0.00006313,
 -0.00005047,0.00013956,0.00000638,-0.00001274,-0.00004816,0.00635955,0
 .00109166,0.00039090,-0.00054797,-0.00033740,0.00184930,0.00120730,-0.
 00175114,0.00185237,0.04712397,0.00771429,-0.10384132,0.03381812,0.023
 23157,-0.01273789,-0.00931575,-0.00752841,0.00870657,0.00011297,-0.003
 65085,-0.00065783,-0.00036933,0.00140086,0.00239373,-0.00085519,-0.001
 28672,0.00227752,-0.00067400,0.00116678,-0.00133261,-0.11099935,0.1263
 4978,0.17822535,-0.00001728,0.00000010,0.00000278,0.00000807,-0.000007
 33,-0.00000682,0.00000141,0.00000310,0.00000336,-0.00002546,0.00008658
 ,0.00002480,-0.00000224,-0.00000334,-0.00000196,-0.00007017,0.00001849
 ,0.00000395,0.00000793,-0.00001041,-0.00000502,0.00001040,0.00000271,0
 .00000549,0.00007824,-0.00007782,-0.00001912,-0.00008256,0.00005678,-0
 .00001131,0.00009236,-0.00010150,-0.00000523,-0.00005644,0.00001648,-0
 .00000303,0.00003318,-0.00000711,-0.00001720,-0.00000915,0.00000052,0.
 00000757,-0.00003407,-0.00001269,-0.00001283,0.00000097,0.00000413,-0.
 00001503,-0.00000677,0.00003150,-0.00001019,-0.00000556,0.00000134,-0.
 00000310,0.00003721,-0.00004250,0.00007040,-0.00000415,-0.00000848,0.0
 0000356,0.00000075,0.00000840,-0.00000758,0.00000472,0.00000375,0.0000
 0096,-0.00000368,-0.00000217,0.00000159,0.00003314,0.00000132,0.000039
 43,-0.00000285,0.00001144,-0.00000308,-0.00001166,-0.00006538,-0.00001
 342,-0.00001034,0.00001121,-0.00000447,0.00005816,0.00000877,-0.000004
 04,0.00004547,-0.00000798,-0.00000151,-0.00000631,0.00000279,-0.000008
 00,0.00006448,0.00011149,0.00000895,-0.00000794,-0.00003041,-0.0000005
 3,0.00000882,0.00000822,-0.00001527,-0.00007997,-0.00015606,-0.0000066
 1,0.00001798,0.00010327,0.00003774,-0.00240373,-0.00530655,-0.00134468
 ,0.00076144,0.00051409,0.00002165,-0.00041356,0.00042771,0.00007077,-0
 .00155722,-0.03395805,-0.01142697,0.00021881,0.00006089,0.00070166,-0.
 00658973,-0.00278607,0.00353740,0.00021088,-0.00180775,-0.00068468,0.0
 0007135,0.00023989,0.00001159,0.00074589,0.00304370,-0.00001727,0.0009
 3784,-0.00232970,-0.00023057,-0.03140479,0.03827755,0.03286582,0.03626
 280,0.00002379,0.00001480,-0.00001495,0.00000182,-0.00000441,0.0000002
 4,-0.00000232,-0.00000216,0.00000111,-0.00000201,0.00003683,0.00000784
 ,0.00000180,-0.00000094,-0.00000720,0.00008040,-0.00000772,-0.00001284
 ,-0.00000035,-0.00000056,0.00000198,-0.00001433,0.00000057,-0.00000287
 ,-0.00012059,-0.00002148,-0.00001090,0.00004002,0.00002565,-0.00000334
 ,-0.00001899,-0.00005581,-0.00000158,-0.00000203,0.00002367,0.00000068
 ,-0.00002449,-0.00003234,0.00001681,0.00000285,0.00000734,-0.00000008,
 -0.00002970,0.00005595,-0.00000539,0.00002238,-0.00003920,-0.00002006,
 -0.00000810,0.00000157,0.00000658,0.00000068,0.00000738,0.00000945,0.0
 0002912,-0.00009049,0.00002487,0.00001586,-0.00004805,0.00002010,-0.00
 000004,-0.00000276,-0.00000211,-0.00000204,0.00000377,0.00000289,0.000
 00182,-0.00000268,-0.00000180,0.00000029,-0.00000720,0.00000923,-0.000
 01199,0.00000489,0.00000075,-0.00000301,-0.00007150,-0.00001802,-0.000
 00376,0.00000163,-0.00001161,0.00002266,-0.00003172,0.00001891,0.00002
 433,-0.00002464,-0.00002918,-0.00000151,0.00001977,-0.00000139,0.00009
 674,-0.00001565,-0.00005479,-0.00001618,0.00001705,0.00000407,0.000001
 90,0.00000143,0.00003700,-0.00014844,-0.00001580,0.00000779,0.00010846
 ,0.00004098,0.00004552,0.00120768,0.00315432,-0.00044869,0.00042861,-0
 .00108988,-0.00038393,-0.00017734,-0.00023954,-0.00008419,-0.00142821,
 -0.01995588,-0.00725409,0.00101731,0.00062258,-0.00072850,-0.00181419,
 -0.00223191,0.00260707,0.00026578,-0.00031738,-0.00066924,-0.00001476,
 0.00027055,0.00017073,-0.00062117,0.00128047,0.00006408,-0.00001283,-0
 .00066614,-0.00001718,-0.00066170,-0.44267020,-0.14671174,0.00192181,0
 .46381426,-0.00001219,-0.00000919,0.00001350,0.00000195,0.00000045,-0.
 00000144,-0.00000208,0.00000193,-0.00000390,0.00000569,0.00001009,0.00
 002260,-0.00000115,-0.00000512,-0.00000621,-0.00004532,0.00000434,0.00
 001484,0.00000436,-0.00000332,-0.00000129,0.00000289,0.00000161,-0.000
 00151,0.00005523,-0.00001336,-0.00004443,-0.00003903,0.00000443,0.0000
 3616,0.00001261,-0.00000506,-0.00002993,0.00000193,-0.00000440,0.00001
 538,0.00001373,0.00001251,-0.00002351,-0.00000149,-0.00000029,0.000006
 29,-0.00000970,-0.00001313,-0.00001986,-0.00000706,0.00002503,0.000022
 49,-0.00000866,0.00001529,-0.00000207,0.00000190,-0.00000406,0.0000003
 3,0.00001372,0.00001067,0.00003308,-0.00000010,0.00000204,-0.00001018,
 -0.00000399,0.00000372,0.00000003,0.00000329,-0.00000280,-0.00000136,0
 .00000054,0.00000211,0.00000387,0.00002188,-0.00000953,0.00001946,-0.0
 0000032,-0.00000249,-0.00000272,0.00001052,-0.00000885,0.00001069,-0.0
 0000141,0.00000149,0.00000189,0.00000602,-0.00000901,0.00000541,0.0000
 0346,0.00000030,0.00001148,0.00000017,-0.00000941,-0.00000332,-0.00003
 839,0.00002489,0.00006202,0.00000219,-0.00000513,-0.00001171,0.0000086
 4,-0.00000539,-0.00001962,0.00002430,-0.00000456,-0.00004956,-0.000007
 40,0.00001459,0.00002430,0.00093223,0.00068469,0.00186171,0.00014702,-
 0.00039571,-0.00045152,-0.00053556,-0.00037015,-0.00046176,0.00133902,
 0.01854044,0.00478082,0.00063198,0.00127170,-0.00047913,0.00183601,0.0
 0107196,-0.00104041,0.00009806,0.00037591,0.00065028,0.00009247,0.0000
 9127,0.00011687,0.00005850,0.00028692,0.00042137,-0.00022838,0.0000580
 0,-0.00093180,0.01927866,-0.17512571,-0.07844384,-0.02247028,0.1531975
 1,0.07582825,0.00002233,0.00000404,-0.00000663,-0.00000183,0.00000204,
 0.00000368,-0.00000289,-0.00000291,-0.00000302,0.00001467,-0.00001636,
 -0.00000132,0.00000137,0.00000086,-0.00000602,0.00008355,-0.00001526,-
 0.00000584,-0.00000007,0.00000384,0.00000417,-0.00001562,-0.00000154,-
 0.00000612,-0.00011718,0.00000727,-0.00002172,0.00004375,-0.00000537,0
 .00001047,-0.00005513,0.00001563,-0.00000442,0.00002892,0.00000083,0.0
 0000519,-0.00003181,-0.00001096,0.00001352,0.00000770,0.00000275,-0.00
 000268,-0.00000004,0.00007669,-0.00002184,-0.00000161,-0.00003580,-0.0
 0001817,-0.00001919,0.00001899,0.00000564,-0.00000479,0.00003629,0.000
 01189,0.00003695,-0.00013420,0.00011922,0.00002182,-0.00006779,0.00001
 485,-0.00000611,-0.00000309,0.00000129,-0.00000333,0.00000055,0.000000
 68,0.00000370,0.00000200,-0.00000072,0.00001757,-0.00002815,0.00002350
 ,-0.00002165,0.00001429,-0.00000680,-0.00002592,-0.00016163,-0.0000371
 3,-0.00001613,0.00002820,-0.00002302,0.00000297,-0.00009539,0.00005958
 ,0.00006709,-0.00003807,-0.00004084,-0.00000509,0.00003482,-0.00001009
 ,0.00006930,-0.00001426,-0.00001710,-0.00002539,0.00002271,-0.00001101
 ,0.00000395,-0.00000423,0.00003021,-0.00011126,0.00002965,-0.00001612,
 0.00008965,0.00001442,0.00004105,-0.08867067,-0.00090392,-0.01797311,0
 .00136891,-0.02524279,-0.01578958,0.00166139,-0.01025495,-0.00454758,0
 .00019792,0.03368598,0.01878550,0.00196910,-0.00109496,0.00037391,-0.0
 0582013,-0.00036059,-0.00158743,0.00022702,0.00048551,-0.00024144,-0.0
 0012511,0.00007868,0.00027308,-0.00148020,0.00344820,0.00108758,0.0007
 0008,-0.00042353,-0.00031065,0.00142890,0.00570769,0.00078864,0.002267
 15,-0.00037000,-0.00003683,0.39930501,-0.00004564,-0.00002972,0.000023
 49,-0.00000558,0.00000959,0.00000064,0.00000596,0.00000391,0.00000041,
 0.00000018,-0.00008594,-0.00002677,-0.00000208,0.00000335,0.00001875,-
 0.00014238,0.00000953,0.00001454,-0.00000648,0.00000426,-0.00000214,0.
 00002871,-0.00000158,0.00000739,0.00022483,0.00008244,0.00006628,-0.00
 003434,-0.00006053,-0.00001123,0.00003284,0.00012019,0.00001935,-0.000
 00130,-0.00004219,-0.00000909,0.00004743,0.00006421,-0.00002363,-0.000
 00672,-0.00001632,-0.00000332,0.00012896,-0.00012357,0.00003425,-0.000
 04818,0.00008001,0.00006505,0.00005378,-0.00006328,-0.00000620,-0.0000
 1007,0.00000752,-0.00003664,-0.00016117,0.00022489,-0.00020247,-0.0000
 3149,0.00015713,-0.00004209,0.00000757,-0.00000579,0.00001378,-0.00000
 335,-0.00001049,-0.00000774,-0.00000549,0.00001144,-0.00000374,-0.0001
 0292,0.00007325,-0.00009289,0.00005365,-0.00003421,0.00001184,-0.00004
 106,0.00025098,0.00007920,0.00001285,0.00001257,0.00003336,-0.00011267
 ,0.00005837,-0.00002271,-0.00014248,0.00005158,0.00007376,0.00001340,-
 0.00005120,0.00001713,-0.00025726,-0.00009543,0.00004500,0.00004568,-0
 .00000736,0.00000908,-0.00000815,-0.00000682,-0.00005008,0.00038973,0.
 00016101,0.00001689,-0.00024678,-0.00016151,-0.00014500,-0.03488316,-0
 .18645506,-0.07313723,-0.00731367,-0.03078552,-0.01474512,-0.00162749,
 -0.00835887,-0.01160287,0.00158232,-0.04183244,-0.01916576,-0.00153818
 ,0.00161598,0.00011526,0.00354208,0.00279569,0.00222938,-0.00008896,0.
 00043556,0.00019668,-0.00001373,-0.00011857,0.00008026,0.00368442,-0.0
 0348324,-0.00138935,-0.00074633,-0.00054109,0.00032674,-0.00027403,0.0
 0222961,-0.00048280,0.00046482,-0.00176755,0.00097117,-0.21602818,0.48
 590588,-0.00000962,-0.00000164,-0.00000451,-0.00000179,0.00000130,-0.0
 0000028,0.00000395,0.00000063,0.00000456,-0.00000815,-0.00001925,-0.00
 002124,0.00000028,0.00000326,0.00001087,-0.00003463,0.00000483,-0.0000
 0687,-0.00000323,0.00000171,-0.00000164,0.00001134,-0.00000052,0.00000
 536,0.00005932,0.00001919,0.00005272,-0.00000637,-0.00001053,-0.000030
 62,0.00002020,0.00002365,0.00002700,-0.00001192,-0.00000728,-0.0000146
 4,0.00001196,0.00000942,0.00000895,-0.00000313,-0.00000476,-0.00000573
 ,0.00003270,-0.00004995,0.00004070,0.00000786,0.00000081,-0.00000596,0
 .00002499,-0.00002318,-0.00000320,-0.00000349,-0.00001364,-0.00001762,
 -0.00004392,0.00008451,-0.00009116,-0.00001021,0.00005262,-0.00000484,
 0.00000834,-0.00000241,0.00000112,-0.00000328,0.00000006,-0.00000036,-
 0.00000403,-0.00000036,-0.00000627,-0.00005014,0.00003699,-0.00004310,
 0.00001011,-0.00000047,0.00000462,-0.00001486,0.00007380,0.00000289,0.
 00000431,-0.00000142,0.00000813,-0.00002659,0.00005246,-0.00001988,-0.
 00003101,0.00001495,0.00000841,-0.00000196,-0.00000849,0.00000612,-0.0
 0004603,-0.00001524,-0.00002401,0.00001618,-0.00001187,0.00001108,-0.0
 0000937,0.00000714,-0.00000923,0.00009857,0.00001522,0.00004636,-0.000
 08089,-0.00004290,-0.00005906,-0.03294382,-0.04852131,-0.10174101,-0.0
 0225891,0.00153259,0.00945136,-0.00687585,-0.04004331,-0.01466650,0.00
 397943,-0.00238550,0.00125553,0.00142425,-0.00012133,0.00117309,-0.001
 16914,0.00066613,-0.00012763,-0.00002931,-0.00031653,0.00000283,0.0000
 6084,0.00047218,0.00076920,0.00051903,-0.00044995,0.00054844,-0.000251
 96,0.00010248,-0.00004059,0.00040711,-0.00182942,0.00177178,-0.0008009
 1,0.00025033,-0.00203947,0.11682263,0.05443663,0.13714299,-0.00000331,
 0.00000184,-0.00000088,0.00000085,-0.00000162,-0.00000127,0.00000063,0
 .00000060,0.00000148,-0.00000575,0.00001186,0.00000112,0.,-0.00000033,
 0.00000098,-0.00001442,0.00000413,-0.00000042,-0.00000007,-0.00000140,
 -0.00000117,0.00000280,0.00000062,0.00000176,0.00001893,-0.00000676,0.
 00000540,-0.00000798,0.00000592,-0.00000437,0.00001544,-0.00001505,0.0
 0000183,-0.00001026,0.00000413,-0.00000212,0.00000663,-0.00000255,-0.0
 0000094,-0.00000234,0.00000051,0.00000072,-0.00000051,-0.00001847,0.00
 000504,0.00000081,0.00000261,0.00000042,0.00000383,-0.00000194,-0.0000
 0166,-0.00000049,-0.00000384,-0.00000318,-0.00000890,0.00001987,-0.000
 01390,-0.00000398,0.00001265,-0.00000379,0.00000150,0.00000117,-0.0000
 0077,0.00000094,0.00000014,0.00000004,-0.00000121,-0.00000010,-0.00000
 019,-0.00000214,0.00000933,-0.00000371,0.00000289,0.00000020,0.0000004
 9,0.00000037,0.00001866,0.00000234,0.00000124,-0.00000176,0.00000348,0
 .00000172,0.00001585,-0.00000898,-0.00000721,0.00000594,0.00000300,0.0
 0000008,-0.00000347,0.00000084,-0.00000353,0.00000726,-0.00000286,0.00
 000352,-0.00000565,0.00000308,-0.00000046,0.00000059,-0.00000372,0.000
 01022,-0.00001442,0.00000651,-0.00001115,0.00000339,-0.00000555,0.0054
 6212,-0.01266537,-0.00118285,0.00027581,-0.00170124,-0.00026786,0.0003
 3883,-0.00102995,-0.00073049,-0.00135119,-0.00097238,0.00011531,0.0001
 9323,-0.00028696,0.00017656,0.00012951,-0.00021887,-0.00001865,0.00003
 072,0.00003897,0.00004839,0.00001690,0.00009318,0.00008135,0.00025387,
 -0.00017210,-0.00006938,0.00001484,0.00001987,-0.00002659,0.00059531,0
 .00109187,0.00043866,0.00082616,0.00019394,-0.00115967,-0.31307965,0.2
 5361012,-0.07878889,0.30630481,0.00001064,0.00000749,-0.00000633,0.000
 00054,-0.00000183,0.00000028,-0.00000101,-0.00000099,0.00000021,0.0000
 0085,0.00001213,0.00000297,0.00000058,-0.00000046,-0.00000293,0.000032
 00,-0.00000258,-0.00000458,0.00000009,-0.00000012,0.00000063,-0.000005
 34,0.00000027,-0.00000144,-0.00004727,-0.00000895,-0.00000415,0.000014
 36,0.00000846,-0.00000142,-0.00001154,-0.00001904,-0.00000148,0.000002
 84,0.00000885,0.00000106,-0.00001195,-0.00001439,0.00000738,0.00000181
 ,0.00000384,-0.00000018,-0.00002165,0.00001809,0.00000227,0.00001244,-
 0.00001006,-0.00001171,-0.00000328,0.00000100,0.00000167,0.00000321,-0
 .00000875,0.00000405,0.00001713,-0.00001666,-0.00000255,0.00000375,-0.
 00001800,0.00000827,0.00000043,-0.00000059,-0.00000221,0.00000014,0.00
 000201,0.00000182,0.00000091,-0.00000297,-0.00000006,0.00000530,-0.000
 00662,0.00000623,-0.00000491,0.00000127,0.00000071,0.00001488,-0.00000
 623,-0.00000580,0.00000242,-0.00000929,-0.00000198,0.00001656,0.000007
 34,-0.00000813,0.00000202,-0.00000486,-0.00000447,0.00000025,0.0000019
 2,0.00000152,0.00003657,0.00000003,-0.00001513,-0.00000290,0.00000352,
 0.00000183,-0.00000138,0.00000280,0.00001001,-0.00005899,-0.00001552,0
 .00000259,0.00003977,0.00001859,0.00001885,0.02759829,-0.02102181,0.00
 864559,0.00028873,0.00023930,0.00071145,0.00008939,0.00221746,-0.00016
 547,-0.00254332,-0.00665413,-0.00399302,-0.00049016,0.00034895,-0.0000
 1444,0.00162816,0.00031352,0.00057153,-0.00003162,-0.00003094,0.000065
 05,-0.00005567,-0.00000885,-0.00011371,0.00019837,-0.00040046,-0.00027
 219,-0.00001593,-0.00018949,-0.00000131,-0.00153497,0.00128842,0.00086
 334,0.00127847,0.00000810,-0.00067839,0.21159197,-0.22023066,0.0360183
 6,-0.23805100,0.24417090,-0.00000018,-0.00000301,0.00000520,-0.0000000
 8,0.00000079,0.00000047,-0.00000114,0.00000011,-0.00000235,0.00000446,
 -0.00000377,0.00000582,-0.00000047,-0.00000103,-0.00000268,0.00000301,
 -0.00000205,0.00000462,0.00000022,0.00000012,0.00000077,-0.00000212,-0
 .00000005,-0.00000192,-0.00000483,0.00000439,-0.00001321,0.00000305,-0
 .00000392,0.00001106,-0.00000875,0.00000614,-0.00000988,0.00000718,-0.
 00000191,0.00000614,-0.00000130,0.00000341,-0.00000688,0.00000107,0.00
 000033,0.00000237,0.00000358,0.00000846,-0.00001203,-0.00000839,0.0000
 0345,0.00001251,-0.00000234,-0.00000219,0.00000122,0.00000096,0.000003
 97,0.00000326,-0.00000053,-0.00000565,-0.00000023,0.00000042,-0.000003
 72,-0.00000083,-0.00000223,-0.00000060,0.00000133,0.00000070,-0.000000
 97,-0.00000050,0.00000118,0.00000118,0.00000194,0.00000385,-0.00000679
 ,0.00000435,0.00000314,-0.00000516,0.00000077,0.00000277,0.00000503,0.
 00000956,0.00000065,0.00000062,0.00000083,-0.00000330,-0.00001167,0.00
 000344,-0.00000815,-0.00000029,0.00000661,0.00000286,-0.00000374,0.000
 00103,-0.00001056,-0.00001238,0.00001144,-0.00000053,0.00000593,-0.000
 00281,0.00000178,-0.00000339,-0.00000103,0.00000511,0.00001749,-0.0000
 1649,0.00000616,-0.00000410,0.00000697,0.01596668,-0.01603107,0.000698
 64,-0.00066944,0.00047599,0.00030591,0.00093637,-0.00060108,0.00032273
 ,-0.00074044,-0.00363802,-0.00260632,0.00000404,-0.00006126,0.00025921
 ,0.00102364,-0.00005201,0.00097370,-0.00005232,0.00002870,-0.00002995,
 0.00000321,0.00009954,-0.00007323,0.00028467,-0.00052270,-0.00027846,-
 0.00008292,-0.00010451,0.00005865,-0.00007803,-0.00023675,-0.00020190,
 -0.00026877,-0.00000987,0.00011743,-0.09772906,0.06230257,-0.03336866,
 0.08140510,-0.04163459,0.03379137||0.00000058,-0.00000124,-0.00000130,
 0.00000007,0.00000025,0.00000060,-0.00000057,0.00000066,-0.00000055,-0
 .00000070,0.00000003,0.00000252,0.00000016,-0.00000011,-0.00000025,-0.
 00000172,0.00000033,-0.00000084,-0.00000137,0.00000035,0.00000060,-0.0
 0000087,0.00000097,-0.00000085,0.00000684,0.00000662,0.00000283,-0.000
 00051,-0.00000536,-0.00000079,0.00000056,0.00000140,-0.00000205,0.0000
 0020,0.00000024,-0.00000030,-0.00000166,0.00000141,0.00000226,0.000000
 39,-0.00000134,-0.00000157,-0.00000313,0.00000038,0.00000429,0.0000012
 1,0.00000001,-0.00000183,0.00000014,0.00000048,0.00000041,-0.00000030,
 0.00000011,0.00000081,-0.00000074,0.00000164,-0.00000002,0.00000032,-0
 .00000114,-0.00000117,0.00000116,0.00000060,0.00000117,-0.00000010,-0.
 00000034,0.00000106,0.00000029,0.00000032,0.00000104,0.00000133,-0.000
 00479,-0.00000388,-0.00000018,-0.00000072,0.00000045,-0.00000052,-0.00
 000409,0.00000310,0.00000077,0.00000153,0.00000082,-0.00000072,0.00000
 094,-0.00000131,-0.00000121,-0.00000111,0.00000022,0.00000047,0.000000
 47,0.00000076,0.00000335,0.00000114,-0.00000214,-0.00000084,-0.0000002
 9,0.00000106,-0.00000049,0.00000021,0.00000002,0.00000171,0.00000173,0
 .00000526,-0.00000441,-0.00000528,-0.00000554,0.00000119,-0.00000071,-
 0.00000042,0.00000086,0.00000038,-0.00000153,0.00000077,-0.00000132,0.
 00000183,-0.00000317,-0.00000138,-0.00000132,-0.00000104,0.00000124,-0
 .00000274,-0.00000643,-0.00000424,-0.00000364,0.00000107,0.00000210,-0
 .00000089,0.00000019,-0.00000118,0.00000592,0.00000552,0.00000429,-0.0
 0000254,0.00000135,0.00000094,0.00000248,0.00000029,0.00000381,0.00000
 129,0.00000106,-0.00000140,-0.00000152,-0.00000237,0.00000131,-0.00000
 158,0.00000123,0.00000012,-0.00000022|||@
 The archive entry for this job was punched.


 FESTINA LENTE!
     - IMPERATOR AUGUSTUS 
 Job cpu time:       0 days 10 hours 13 minutes 58.0 seconds.
 Elapsed time:       0 days 10 hours 13 minutes 56.8 seconds.
 File lengths (MBytes):  RWF=   1213 Int=      0 D2E=      0 Chk=     24 Scr=      1
 Normal termination of Gaussian 16 at Wed Apr 01 23:54:03 2026.
