 Entering Link 1 = C:\G16W\l1.exe PID=     25532.
  
 Copyright (c) 1988-2019, Gaussian, Inc.  All Rights Reserved.
  
 This is part of the Gaussian(R) 16 program.  It is based on
 the Gaussian(R) 09 system (copyright 2009, Gaussian, Inc.),
 the Gaussian(R) 03 system (copyright 2003, Gaussian, Inc.),
 the Gaussian(R) 98 system (copyright 1998, Gaussian, Inc.),
 the Gaussian(R) 94 system (copyright 1995, Gaussian, Inc.),
 the Gaussian 92(TM) system (copyright 1992, Gaussian, Inc.),
 the Gaussian 90(TM) system (copyright 1990, Gaussian, Inc.),
 the Gaussian 88(TM) system (copyright 1988, Gaussian, Inc.),
 the Gaussian 86(TM) system (copyright 1986, Carnegie Mellon
 University), and the Gaussian 82(TM) system (copyright 1983,
 Carnegie Mellon University). Gaussian is a federally registered
 trademark of Gaussian, Inc.
  
 This software contains proprietary and confidential information,
 including trade secrets, belonging to Gaussian, Inc.
  
 This software is provided under written license and may be
 used, copied, transmitted, or stored only in accord with that
 written license.
  
 The following legend is applicable only to US Government
 contracts under FAR:
  
                    RESTRICTED RIGHTS LEGEND
  
 Use, reproduction and disclosure by the US Government is
 subject to restrictions as set forth in subparagraphs (a)
 and (c) of the Commercial Computer Software - Restricted
 Rights clause in FAR 52.227-19.
  
 Gaussian, Inc.
 340 Quinnipiac St., Bldg. 40, Wallingford CT 06492
  
  
 ---------------------------------------------------------------
 Warning -- This program may not be used in any manner that
 competes with the business of Gaussian, Inc. or will provide
 assistance to any competitor of Gaussian, Inc.  The licensee
 of this program is prohibited from giving any competitor of
 Gaussian, Inc. access to this program.  By using this program,
 the user acknowledges that Gaussian, Inc. is engaged in the
 business of creating and licensing software in the field of
 computational chemistry and represents and warrants to the
 licensee that it is not a competitor of Gaussian, Inc. and that
 it will not use this program in any manner prohibited above.
 ---------------------------------------------------------------
  

 Cite this work as:
 Gaussian 16, Revision C.01,
 M. J. Frisch, G. W. Trucks, H. B. Schlegel, G. E. Scuseria, 
 M. A. Robb, J. R. Cheeseman, G. Scalmani, V. Barone, 
 G. A. Petersson, H. Nakatsuji, X. Li, M. Caricato, A. V. Marenich, 
 J. Bloino, B. G. Janesko, R. Gomperts, B. Mennucci, H. P. Hratchian, 
 J. V. Ortiz, A. F. Izmaylov, J. L. Sonnenberg, D. Williams-Young, 
 F. Ding, F. Lipparini, F. Egidi, J. Goings, B. Peng, A. Petrone, 
 T. Henderson, D. Ranasinghe, V. G. Zakrzewski, J. Gao, N. Rega, 
 G. Zheng, W. Liang, M. Hada, M. Ehara, K. Toyota, R. Fukuda, 
 J. Hasegawa, M. Ishida, T. Nakajima, Y. Honda, O. Kitao, H. Nakai, 
 T. Vreven, K. Throssell, J. A. Montgomery, Jr., J. E. Peralta, 
 F. Ogliaro, M. J. Bearpark, J. J. Heyd, E. N. Brothers, K. N. Kudin, 
 V. N. Staroverov, T. A. Keith, R. Kobayashi, J. Normand, 
 K. Raghavachari, A. P. Rendell, J. C. Burant, S. S. Iyengar, 
 J. Tomasi, M. Cossi, J. M. Millam, M. Klene, C. Adamo, R. Cammi, 
 J. W. Ochterski, R. L. Martin, K. Morokuma, O. Farkas, 
 J. B. Foresman, and D. J. Fox, Gaussian, Inc., Wallingford CT, 2019.
 
 ******************************************
 Gaussian 16:  EM64W-G16RevC.01 30-May-2019
                02-Apr-2026 
 ******************************************
 %nprocshared=16
 Will use up to   16 processors via shared memory.
 %mem=64GB
 %chk=1-3.chk
 ----------------------------------------------------------------------
 #p opt freq b3lyp/6-31+g(d,p) empiricaldispersion=gd3bj geom=connectiv
 ity
 ----------------------------------------------------------------------
 1/18=20,19=15,26=3,38=1,57=2/1,3;
 2/9=110,12=2,17=6,18=5,40=1/2;
 3/5=1,6=6,7=111,11=2,25=1,30=1,71=1,74=-5,124=41/1,2,3;
 4//1;
 5/5=2,38=5/2;
 6/7=2,8=2,9=2,10=2,28=1/1;
 7//1,2,3,16;
 1/18=20,19=15,26=3/3(2);
 2/9=110/2;
 99//99;
 2/9=110/2;
 3/5=1,6=6,7=111,11=2,25=1,30=1,71=1,74=-5,124=41/1,2,3;
 4/5=5,16=3,69=1/1;
 5/5=2,38=5/2;
 7//1,2,3,16;
 1/18=20,19=15,26=3/3(-5);
 2/9=110/2;
 6/7=2,8=2,9=2,10=2,19=2,28=1/1;
 99/9=1/99;
 Leave Link    1 at Thu Apr 02 14:46:26 2026, MaxMem=  8589934592 cpu:               0.0 elap:               0.3
 (Enter C:\G16W\l101.exe)
 -------------------
 Title Card Required
 -------------------
 Symbolic Z-matrix:
 Charge =  1 Multiplicity = 1
 C                     6.75885  -0.90261  -0.27146 
 H                     7.0567    0.04202  -0.74779 
 H                     7.24215  -0.98008   0.71172 
 C                     5.24735  -0.95138  -0.105 
 H                     4.77934  -0.84986  -1.09577 
 C                     4.71176   0.12923   0.82344 
 H                     4.81787   1.1214    0.37806 
 H                     5.24477   0.10486   1.7819 
 O                     3.31025  -0.07925   1.05833 
 H                     3.2011   -1.03461   1.20172 
 O                     4.84422  -2.1869    0.48754 
 H                     5.26962  -2.90412  -0.00585 
 O                     7.08826  -2.02276  -1.09333 
 H                     8.04449  -2.15172  -1.11226 
 N                    -1.60063   3.07597  -0.00294 
 C                    -2.14253   2.45652   1.25961 
 H                    -1.35714   2.44101   2.01349 
 H                    -2.9745    3.06856   1.60996 
 H                    -2.47963   1.44681   1.02149 
 C                    -1.06423   4.44836   0.29329 
 H                    -0.26743   4.37497   1.03081 
 H                    -0.67927   4.88198  -0.62978 
 H                    -1.8754    5.06243   0.68529 
 C                    -2.72185   3.1919   -1.00414 
 H                    -2.32306   3.62047  -1.92394 
 H                    -3.11382   2.19148  -1.18609 
 H                    -3.4923    3.84409  -0.59144 
 C                    -0.52541   2.19211  -0.61978 
 H                    -1.03619   1.30301  -0.9877 
 H                    -0.1178    2.7423   -1.47051 
 C                     0.62028   1.78849   0.30815 
 H                     1.05375   2.66496   0.81516 
 H                     0.26483   1.09542   1.08261 
 O                     1.54874   1.17524  -0.55058 
 H                     2.20744   0.67845  -0.00935 
 C                    -5.64413  -2.76584   0.01898 
 H                    -6.46826  -2.21238   0.49079 
 H                    -5.87229  -2.91631  -1.04475 
 C                    -4.34275  -1.98999   0.16001 
 H                    -4.14295  -1.82889   1.23038 
 C                    -4.3584   -0.64963  -0.56288 
 H                    -5.03764   0.05241  -0.07133 
 H                    -4.67782  -0.7882   -1.604 
 O                    -3.04696  -0.06591  -0.53498 
 H                    -2.44021  -0.80231  -0.72509 
 O                    -3.25813  -2.71322  -0.4218 
 H                    -3.29624  -3.62314  -0.09015 
 O                    -5.41381  -4.01183   0.67532 
 H                    -6.1398   -4.62262   0.49776 
 C                     0.56637   4.01852  -2.58064 
 H                     0.06991   4.60128  -1.7949 
 H                    -0.11742   3.86957  -3.42537 
 C                     1.8354    4.71162  -3.0451 
 H                     1.83341   4.78508  -4.1404 
 C                     3.11148   4.03068  -2.57347 
 H                     3.21745   3.03918  -3.01864 
 H                     3.09809   3.94032  -1.47872 
 O                     4.27655   4.78628  -3.00158 
 H                     4.13728   5.72759  -2.76257 
 O                     1.89582   6.06193  -2.48005 
 H                     1.05361   6.52675  -2.66308 
 O                     1.01195   2.72195  -2.05553 
 H                     1.98087   2.61584  -2.09878 
 
 Add virtual bond connecting atoms H35        and O9         Dist= 3.23D+00.
 Add virtual bond connecting atoms O44        and H19        Dist= 4.24D+00.
 Add virtual bond connecting atoms O44        and H26        Dist= 4.44D+00.
 ITRead=  0  0  0  0  0  0  0  0  0  0  0  0  0  0  0  0  0  0  0  0
 ITRead=  0  0  0  0  0  0  0  0  0  0  0  0  0  0  0  0  0  0  0  0
 ITRead=  0  0  0  0  0  0  0  0  0  0  0  0  0  0  0  0  0  0  0  0
 ITRead=  0  0  0
 MicOpt= -1 -1 -1 -1 -1 -1 -1 -1 -1 -1 -1 -1 -1 -1 -1 -1 -1 -1 -1 -1
 MicOpt= -1 -1 -1 -1 -1 -1 -1 -1 -1 -1 -1 -1 -1 -1 -1 -1 -1 -1 -1 -1
 MicOpt= -1 -1 -1 -1 -1 -1 -1 -1 -1 -1 -1 -1 -1 -1 -1 -1 -1 -1 -1 -1
 MicOpt= -1 -1 -1
 NAtoms=     63 NQM=       63 NQMF=       0 NMMI=      0 NMMIF=      0
                NMic=       0 NMicF=      0.
                    Isotopes and Nuclear Properties:
 (Nuclear quadrupole moments (NQMom) in fm**2, nuclear magnetic moments (NMagM)
  in nuclear magnetons)

  Atom         1           2           3           4           5           6           7           8           9          10
 IAtWgt=          12           1           1          12           1          12           1           1          16           1
 AtmWgt=  12.0000000   1.0078250   1.0078250  12.0000000   1.0078250  12.0000000   1.0078250   1.0078250  15.9949146   1.0078250
 NucSpn=           0           1           1           0           1           0           1           1           0           1
 AtZEff=   0.0000000   0.0000000   0.0000000   0.0000000   0.0000000   0.0000000   0.0000000   0.0000000   0.0000000   0.0000000
 NQMom=    0.0000000   0.0000000   0.0000000   0.0000000   0.0000000   0.0000000   0.0000000   0.0000000   0.0000000   0.0000000
 NMagM=    0.0000000   2.7928460   2.7928460   0.0000000   2.7928460   0.0000000   2.7928460   2.7928460   0.0000000   2.7928460
 AtZNuc=   6.0000000   1.0000000   1.0000000   6.0000000   1.0000000   6.0000000   1.0000000   1.0000000   8.0000000   1.0000000

  Atom        11          12          13          14          15          16          17          18          19          20
 IAtWgt=          16           1          16           1          14          12           1           1           1          12
 AtmWgt=  15.9949146   1.0078250  15.9949146   1.0078250  14.0030740  12.0000000   1.0078250   1.0078250   1.0078250  12.0000000
 NucSpn=           0           1           0           1           2           0           1           1           1           0
 AtZEff=   0.0000000   0.0000000   0.0000000   0.0000000   0.0000000   0.0000000   0.0000000   0.0000000   0.0000000   0.0000000
 NQMom=    0.0000000   0.0000000   0.0000000   0.0000000   2.0440000   0.0000000   0.0000000   0.0000000   0.0000000   0.0000000
 NMagM=    0.0000000   2.7928460   0.0000000   2.7928460   0.4037610   0.0000000   2.7928460   2.7928460   2.7928460   0.0000000
 AtZNuc=   8.0000000   1.0000000   8.0000000   1.0000000   7.0000000   6.0000000   1.0000000   1.0000000   1.0000000   6.0000000

  Atom        21          22          23          24          25          26          27          28          29          30
 IAtWgt=           1           1           1          12           1           1           1          12           1           1
 AtmWgt=   1.0078250   1.0078250   1.0078250  12.0000000   1.0078250   1.0078250   1.0078250  12.0000000   1.0078250   1.0078250
 NucSpn=           1           1           1           0           1           1           1           0           1           1
 AtZEff=   0.0000000   0.0000000   0.0000000   0.0000000   0.0000000   0.0000000   0.0000000   0.0000000   0.0000000   0.0000000
 NQMom=    0.0000000   0.0000000   0.0000000   0.0000000   0.0000000   0.0000000   0.0000000   0.0000000   0.0000000   0.0000000
 NMagM=    2.7928460   2.7928460   2.7928460   0.0000000   2.7928460   2.7928460   2.7928460   0.0000000   2.7928460   2.7928460
 AtZNuc=   1.0000000   1.0000000   1.0000000   6.0000000   1.0000000   1.0000000   1.0000000   6.0000000   1.0000000   1.0000000

  Atom        31          32          33          34          35          36          37          38          39          40
 IAtWgt=          12           1           1          16           1          12           1           1          12           1
 AtmWgt=  12.0000000   1.0078250   1.0078250  15.9949146   1.0078250  12.0000000   1.0078250   1.0078250  12.0000000   1.0078250
 NucSpn=           0           1           1           0           1           0           1           1           0           1
 AtZEff=   0.0000000   0.0000000   0.0000000   0.0000000   0.0000000   0.0000000   0.0000000   0.0000000   0.0000000   0.0000000
 NQMom=    0.0000000   0.0000000   0.0000000   0.0000000   0.0000000   0.0000000   0.0000000   0.0000000   0.0000000   0.0000000
 NMagM=    0.0000000   2.7928460   2.7928460   0.0000000   2.7928460   0.0000000   2.7928460   2.7928460   0.0000000   2.7928460
 AtZNuc=   6.0000000   1.0000000   1.0000000   8.0000000   1.0000000   6.0000000   1.0000000   1.0000000   6.0000000   1.0000000

  Atom        41          42          43          44          45          46          47          48          49          50
 IAtWgt=          12           1           1          16           1          16           1          16           1          12
 AtmWgt=  12.0000000   1.0078250   1.0078250  15.9949146   1.0078250  15.9949146   1.0078250  15.9949146   1.0078250  12.0000000
 NucSpn=           0           1           1           0           1           0           1           0           1           0
 AtZEff=   0.0000000   0.0000000   0.0000000   0.0000000   0.0000000   0.0000000   0.0000000   0.0000000   0.0000000   0.0000000
 NQMom=    0.0000000   0.0000000   0.0000000   0.0000000   0.0000000   0.0000000   0.0000000   0.0000000   0.0000000   0.0000000
 NMagM=    0.0000000   2.7928460   2.7928460   0.0000000   2.7928460   0.0000000   2.7928460   0.0000000   2.7928460   0.0000000
 AtZNuc=   6.0000000   1.0000000   1.0000000   8.0000000   1.0000000   8.0000000   1.0000000   8.0000000   1.0000000   6.0000000

  Atom        51          52          53          54          55          56          57          58          59          60
 IAtWgt=           1           1          12           1          12           1           1          16           1          16
 AtmWgt=   1.0078250   1.0078250  12.0000000   1.0078250  12.0000000   1.0078250   1.0078250  15.9949146   1.0078250  15.9949146
 NucSpn=           1           1           0           1           0           1           1           0           1           0
 AtZEff=   0.0000000   0.0000000   0.0000000   0.0000000   0.0000000   0.0000000   0.0000000   0.0000000   0.0000000   0.0000000
 NQMom=    0.0000000   0.0000000   0.0000000   0.0000000   0.0000000   0.0000000   0.0000000   0.0000000   0.0000000   0.0000000
 NMagM=    2.7928460   2.7928460   0.0000000   2.7928460   0.0000000   2.7928460   2.7928460   0.0000000   2.7928460   0.0000000
 AtZNuc=   1.0000000   1.0000000   6.0000000   1.0000000   6.0000000   1.0000000   1.0000000   8.0000000   1.0000000   8.0000000

  Atom        61          62          63
 IAtWgt=           1          16           1
 AtmWgt=   1.0078250  15.9949146   1.0078250
 NucSpn=           1           0           1
 AtZEff=   0.0000000   0.0000000   0.0000000
 NQMom=    0.0000000   0.0000000   0.0000000
 NMagM=    2.7928460   0.0000000   2.7928460
 AtZNuc=   1.0000000   8.0000000   1.0000000
 Leave Link  101 at Thu Apr 02 14:46:27 2026, MaxMem=  8589934592 cpu:               1.0 elap:               0.4
 (Enter C:\G16W\l103.exe)

 GradGradGradGradGradGradGradGradGradGradGradGradGradGradGradGradGradGrad
 Berny optimization.
 Initialization pass.
                           ----------------------------
                           !    Initial Parameters    !
                           ! (Angstroms and Degrees)  !
 --------------------------                            --------------------------
 ! Name  Definition              Value          Derivative Info.                !
 --------------------------------------------------------------------------------
 ! R1    R(1,2)                  1.0991         estimate D2E/DX2                !
 ! R2    R(1,3)                  1.0983         estimate D2E/DX2                !
 ! R3    R(1,4)                  1.5214         estimate D2E/DX2                !
 ! R4    R(1,13)                 1.4278         estimate D2E/DX2                !
 ! R5    R(4,5)                  1.1004         estimate D2E/DX2                !
 ! R6    R(4,6)                  1.522          estimate D2E/DX2                !
 ! R7    R(4,11)                 1.4283         estimate D2E/DX2                !
 ! R8    R(6,7)                  1.0927         estimate D2E/DX2                !
 ! R9    R(6,8)                  1.097          estimate D2E/DX2                !
 ! R10   R(6,9)                  1.4363         estimate D2E/DX2                !
 ! R11   R(9,10)                 0.9722         estimate D2E/DX2                !
 ! R12   R(9,35)                 1.7118         estimate D2E/DX2                !
 ! R13   R(11,12)                0.9689         estimate D2E/DX2                !
 ! R14   R(13,14)                0.9651         estimate D2E/DX2                !
 ! R15   R(15,16)                1.5071         estimate D2E/DX2                !
 ! R16   R(15,20)                1.503          estimate D2E/DX2                !
 ! R17   R(15,24)                1.5076         estimate D2E/DX2                !
 ! R18   R(15,28)                1.5224         estimate D2E/DX2                !
 ! R19   R(16,17)                1.0888         estimate D2E/DX2                !
 ! R20   R(16,18)                1.0907         estimate D2E/DX2                !
 ! R21   R(16,19)                1.0908         estimate D2E/DX2                !
 ! R22   R(19,44)                2.2434         estimate D2E/DX2                !
 ! R23   R(20,21)                1.0882         estimate D2E/DX2                !
 ! R24   R(20,22)                1.0901         estimate D2E/DX2                !
 ! R25   R(20,23)                1.0903         estimate D2E/DX2                !
 ! R26   R(24,25)                1.0903         estimate D2E/DX2                !
 ! R27   R(24,26)                1.0898         estimate D2E/DX2                !
 ! R28   R(24,27)                1.0905         estimate D2E/DX2                !
 ! R29   R(26,44)                2.3504         estimate D2E/DX2                !
 ! R30   R(28,29)                1.0894         estimate D2E/DX2                !
 ! R31   R(28,30)                1.0921         estimate D2E/DX2                !
 ! R32   R(28,31)                1.5286         estimate D2E/DX2                !
 ! R33   R(30,62)                1.2724         estimate D2E/DX2                !
 ! R34   R(31,32)                1.1014         estimate D2E/DX2                !
 ! R35   R(31,33)                1.0984         estimate D2E/DX2                !
 ! R36   R(31,34)                1.4055         estimate D2E/DX2                !
 ! R37   R(34,35)                0.9867         estimate D2E/DX2                !
 ! R38   R(36,37)                1.0991         estimate D2E/DX2                !
 ! R39   R(36,38)                1.0983         estimate D2E/DX2                !
 ! R40   R(36,39)                1.5217         estimate D2E/DX2                !
 ! R41   R(36,48)                1.427          estimate D2E/DX2                !
 ! R42   R(39,40)                1.1007         estimate D2E/DX2                !
 ! R43   R(39,41)                1.523          estimate D2E/DX2                !
 ! R44   R(39,46)                1.4276         estimate D2E/DX2                !
 ! R45   R(41,42)                1.0935         estimate D2E/DX2                !
 ! R46   R(41,43)                1.0978         estimate D2E/DX2                !
 ! R47   R(41,44)                1.4358         estimate D2E/DX2                !
 ! R48   R(44,45)                0.9729         estimate D2E/DX2                !
 ! R49   R(46,47)                0.9692         estimate D2E/DX2                !
 ! R50   R(48,49)                0.9652         estimate D2E/DX2                !
 ! R51   R(50,51)                1.097          estimate D2E/DX2                !
 ! R52   R(50,52)                1.097          estimate D2E/DX2                !
 ! R53   R(50,53)                1.5187         estimate D2E/DX2                !
 ! R54   R(50,62)                1.4681         estimate D2E/DX2                !
 ! R55   R(53,54)                1.0978         estimate D2E/DX2                !
 ! R56   R(53,55)                1.5213         estimate D2E/DX2                !
 ! R57   R(53,60)                1.465          estimate D2E/DX2                !
 ! R58   R(55,56)                1.092          estimate D2E/DX2                !
 ! R59   R(55,57)                1.0985         estimate D2E/DX2                !
 ! R60   R(55,58)                1.4531         estimate D2E/DX2                !
 ! R61   R(58,59)                0.9811         estimate D2E/DX2                !
 ! R62   R(60,61)                0.9792         estimate D2E/DX2                !
 ! R63   R(62,63)                0.9757         estimate D2E/DX2                !
 ! A1    A(2,1,3)              109.229          estimate D2E/DX2                !
 ! A2    A(2,1,4)              110.1333         estimate D2E/DX2                !
 ! A3    A(2,1,13)             111.2408         estimate D2E/DX2                !
 ! A4    A(3,1,4)              109.6932         estimate D2E/DX2                !
 ! A5    A(3,1,13)             111.0029         estimate D2E/DX2                !
 ! A6    A(4,1,13)             105.4878         estimate D2E/DX2                !
 ! A7    A(1,4,5)              108.7273         estimate D2E/DX2                !
 ! A8    A(1,4,6)              113.1778         estimate D2E/DX2                !
 ! A9    A(1,4,11)             110.7026         estimate D2E/DX2                !
 ! A10   A(5,4,6)              109.5148         estimate D2E/DX2                !
 ! A11   A(5,4,11)             109.4671         estimate D2E/DX2                !
 ! A12   A(6,4,11)             105.1742         estimate D2E/DX2                !
 ! A13   A(4,6,7)              111.2137         estimate D2E/DX2                !
 ! A14   A(4,6,8)              110.2564         estimate D2E/DX2                !
 ! A15   A(4,6,9)              109.8822         estimate D2E/DX2                !
 ! A16   A(7,6,8)              109.2147         estimate D2E/DX2                !
 ! A17   A(7,6,9)              107.0501         estimate D2E/DX2                !
 ! A18   A(8,6,9)              109.1491         estimate D2E/DX2                !
 ! A19   A(6,9,10)             106.04           estimate D2E/DX2                !
 ! A20   A(6,9,35)             117.5424         estimate D2E/DX2                !
 ! A21   A(10,9,35)            117.0409         estimate D2E/DX2                !
 ! A22   A(4,11,12)            107.7665         estimate D2E/DX2                !
 ! A23   A(1,13,14)            110.1645         estimate D2E/DX2                !
 ! A24   A(16,15,20)           109.7865         estimate D2E/DX2                !
 ! A25   A(16,15,24)           108.6946         estimate D2E/DX2                !
 ! A26   A(16,15,28)           110.7772         estimate D2E/DX2                !
 ! A27   A(20,15,24)           109.0319         estimate D2E/DX2                !
 ! A28   A(20,15,28)           110.9723         estimate D2E/DX2                !
 ! A29   A(24,15,28)           107.5066         estimate D2E/DX2                !
 ! A30   A(15,16,17)           109.0589         estimate D2E/DX2                !
 ! A31   A(15,16,18)           108.224          estimate D2E/DX2                !
 ! A32   A(15,16,19)           107.9815         estimate D2E/DX2                !
 ! A33   A(17,16,18)           109.6232         estimate D2E/DX2                !
 ! A34   A(17,16,19)           111.1549         estimate D2E/DX2                !
 ! A35   A(18,16,19)           110.7221         estimate D2E/DX2                !
 ! A36   A(16,19,44)           148.6252         estimate D2E/DX2                !
 ! A37   A(15,20,21)           109.4705         estimate D2E/DX2                !
 ! A38   A(15,20,22)           108.8058         estimate D2E/DX2                !
 ! A39   A(15,20,23)           108.6403         estimate D2E/DX2                !
 ! A40   A(21,20,22)           110.0076         estimate D2E/DX2                !
 ! A41   A(21,20,23)           109.8201         estimate D2E/DX2                !
 ! A42   A(22,20,23)           110.0687         estimate D2E/DX2                !
 ! A43   A(15,24,25)           108.5693         estimate D2E/DX2                !
 ! A44   A(15,24,26)           107.9256         estimate D2E/DX2                !
 ! A45   A(15,24,27)           108.6678         estimate D2E/DX2                !
 ! A46   A(25,24,26)           110.5823         estimate D2E/DX2                !
 ! A47   A(25,24,27)           110.035          estimate D2E/DX2                !
 ! A48   A(26,24,27)           110.9827         estimate D2E/DX2                !
 ! A49   A(24,26,44)           145.6099         estimate D2E/DX2                !
 ! A50   A(15,28,29)           106.231          estimate D2E/DX2                !
 ! A51   A(15,28,30)           106.6633         estimate D2E/DX2                !
 ! A52   A(15,28,31)           115.8926         estimate D2E/DX2                !
 ! A53   A(29,28,30)           108.8495         estimate D2E/DX2                !
 ! A54   A(29,28,31)           109.9347         estimate D2E/DX2                !
 ! A55   A(30,28,31)           109.0371         estimate D2E/DX2                !
 ! A56   A(28,30,62)           132.9624         estimate D2E/DX2                !
 ! A57   A(28,31,32)           111.3642         estimate D2E/DX2                !
 ! A58   A(28,31,33)           110.6147         estimate D2E/DX2                !
 ! A59   A(28,31,34)           103.8528         estimate D2E/DX2                !
 ! A60   A(32,31,33)           107.752          estimate D2E/DX2                !
 ! A61   A(32,31,34)           111.6212         estimate D2E/DX2                !
 ! A62   A(33,31,34)           111.6686         estimate D2E/DX2                !
 ! A63   A(31,34,35)           108.9973         estimate D2E/DX2                !
 ! A64   A(37,36,38)           109.2067         estimate D2E/DX2                !
 ! A65   A(37,36,39)           110.1652         estimate D2E/DX2                !
 ! A66   A(37,36,48)           111.2999         estimate D2E/DX2                !
 ! A67   A(38,36,39)           109.7119         estimate D2E/DX2                !
 ! A68   A(38,36,48)           111.0625         estimate D2E/DX2                !
 ! A69   A(39,36,48)           105.3388         estimate D2E/DX2                !
 ! A70   A(36,39,40)           108.663          estimate D2E/DX2                !
 ! A71   A(36,39,41)           113.3262         estimate D2E/DX2                !
 ! A72   A(36,39,46)           110.7136         estimate D2E/DX2                !
 ! A73   A(40,39,41)           109.55           estimate D2E/DX2                !
 ! A74   A(40,39,46)           109.424          estimate D2E/DX2                !
 ! A75   A(41,39,46)           105.0835         estimate D2E/DX2                !
 ! A76   A(39,41,42)           110.9797         estimate D2E/DX2                !
 ! A77   A(39,41,43)           110.0019         estimate D2E/DX2                !
 ! A78   A(39,41,44)           109.8289         estimate D2E/DX2                !
 ! A79   A(42,41,43)           109.0621         estimate D2E/DX2                !
 ! A80   A(42,41,44)           107.3142         estimate D2E/DX2                !
 ! A81   A(43,41,44)           109.6046         estimate D2E/DX2                !
 ! A82   A(19,44,26)            63.3699         estimate D2E/DX2                !
 ! A83   A(19,44,41)           121.2401         estimate D2E/DX2                !
 ! A84   A(19,44,45)           119.225          estimate D2E/DX2                !
 ! A85   A(26,44,41)           111.0456         estimate D2E/DX2                !
 ! A86   A(26,44,45)           133.6748         estimate D2E/DX2                !
 ! A87   A(41,44,45)           104.9581         estimate D2E/DX2                !
 ! A88   A(39,46,47)           107.8354         estimate D2E/DX2                !
 ! A89   A(36,48,49)           110.2744         estimate D2E/DX2                !
 ! A90   A(51,50,52)           109.9731         estimate D2E/DX2                !
 ! A91   A(51,50,53)           110.7788         estimate D2E/DX2                !
 ! A92   A(51,50,62)           110.5065         estimate D2E/DX2                !
 ! A93   A(52,50,53)           110.3241         estimate D2E/DX2                !
 ! A94   A(52,50,62)           110.1639         estimate D2E/DX2                !
 ! A95   A(53,50,62)           105.0            estimate D2E/DX2                !
 ! A96   A(50,53,54)           109.5213         estimate D2E/DX2                !
 ! A97   A(50,53,55)           113.6908         estimate D2E/DX2                !
 ! A98   A(50,53,60)           109.7025         estimate D2E/DX2                !
 ! A99   A(54,53,55)           109.9253         estimate D2E/DX2                !
 ! A100  A(54,53,60)           108.8581         estimate D2E/DX2                !
 ! A101  A(55,53,60)           104.9743         estimate D2E/DX2                !
 ! A102  A(53,55,56)           111.1867         estimate D2E/DX2                !
 ! A103  A(53,55,57)           109.605          estimate D2E/DX2                !
 ! A104  A(53,55,58)           110.3914         estimate D2E/DX2                !
 ! A105  A(56,55,57)           109.4357         estimate D2E/DX2                !
 ! A106  A(56,55,58)           105.9155         estimate D2E/DX2                !
 ! A107  A(57,55,58)           110.251          estimate D2E/DX2                !
 ! A108  A(55,58,59)           108.2587         estimate D2E/DX2                !
 ! A109  A(53,60,61)           109.2665         estimate D2E/DX2                !
 ! A110  A(30,62,50)            83.1567         estimate D2E/DX2                !
 ! A111  A(30,62,63)           154.6705         estimate D2E/DX2                !
 ! A112  A(50,62,63)           112.4331         estimate D2E/DX2                !
 ! A113  L(9,35,34,40,-1)      179.2254         estimate D2E/DX2                !
 ! A114  L(9,35,34,40,-2)      174.0254         estimate D2E/DX2                !
 ! D1    D(2,1,4,5)             58.4886         estimate D2E/DX2                !
 ! D2    D(2,1,4,6)            -63.4384         estimate D2E/DX2                !
 ! D3    D(2,1,4,11)           178.774          estimate D2E/DX2                !
 ! D4    D(3,1,4,5)            178.7395         estimate D2E/DX2                !
 ! D5    D(3,1,4,6)             56.8124         estimate D2E/DX2                !
 ! D6    D(3,1,4,11)           -60.9752         estimate D2E/DX2                !
 ! D7    D(13,1,4,5)           -61.6433         estimate D2E/DX2                !
 ! D8    D(13,1,4,6)           176.4297         estimate D2E/DX2                !
 ! D9    D(13,1,4,11)           58.6421         estimate D2E/DX2                !
 ! D10   D(2,1,13,14)           70.8472         estimate D2E/DX2                !
 ! D11   D(3,1,13,14)          -51.0046         estimate D2E/DX2                !
 ! D12   D(4,1,13,14)         -169.7522         estimate D2E/DX2                !
 ! D13   D(1,4,6,7)             68.6077         estimate D2E/DX2                !
 ! D14   D(1,4,6,8)            -52.6943         estimate D2E/DX2                !
 ! D15   D(1,4,6,9)           -173.0442         estimate D2E/DX2                !
 ! D16   D(5,4,6,7)            -52.8773         estimate D2E/DX2                !
 ! D17   D(5,4,6,8)           -174.1794         estimate D2E/DX2                !
 ! D18   D(5,4,6,9)             65.4708         estimate D2E/DX2                !
 ! D19   D(11,4,6,7)          -170.4239         estimate D2E/DX2                !
 ! D20   D(11,4,6,8)            68.274          estimate D2E/DX2                !
 ! D21   D(11,4,6,9)           -52.0758         estimate D2E/DX2                !
 ! D22   D(1,4,11,12)          -49.7106         estimate D2E/DX2                !
 ! D23   D(5,4,11,12)           70.1322         estimate D2E/DX2                !
 ! D24   D(6,4,11,12)         -172.2888         estimate D2E/DX2                !
 ! D25   D(4,6,9,10)            42.8905         estimate D2E/DX2                !
 ! D26   D(4,6,9,35)           -90.2225         estimate D2E/DX2                !
 ! D27   D(7,6,9,10)           163.7799         estimate D2E/DX2                !
 ! D28   D(7,6,9,35)            30.6669         estimate D2E/DX2                !
 ! D29   D(8,6,9,10)           -78.1276         estimate D2E/DX2                !
 ! D30   D(8,6,9,35)           148.7594         estimate D2E/DX2                !
 ! D31   D(6,9,34,31)         -130.7183         estimate D2E/DX2                !
 ! D32   D(10,9,34,31)          99.2878         estimate D2E/DX2                !
 ! D33   D(20,15,16,17)        -56.4558         estimate D2E/DX2                !
 ! D34   D(20,15,16,18)         62.7416         estimate D2E/DX2                !
 ! D35   D(20,15,16,19)       -177.3569         estimate D2E/DX2                !
 ! D36   D(24,15,16,17)       -175.6382         estimate D2E/DX2                !
 ! D37   D(24,15,16,18)        -56.4408         estimate D2E/DX2                !
 ! D38   D(24,15,16,19)         63.4607         estimate D2E/DX2                !
 ! D39   D(28,15,16,17)         66.4545         estimate D2E/DX2                !
 ! D40   D(28,15,16,18)       -174.3481         estimate D2E/DX2                !
 ! D41   D(28,15,16,19)        -54.4466         estimate D2E/DX2                !
 ! D42   D(16,15,20,21)         59.891          estimate D2E/DX2                !
 ! D43   D(16,15,20,22)       -179.8601         estimate D2E/DX2                !
 ! D44   D(16,15,20,23)        -60.0296         estimate D2E/DX2                !
 ! D45   D(24,15,20,21)        178.8661         estimate D2E/DX2                !
 ! D46   D(24,15,20,22)        -60.885          estimate D2E/DX2                !
 ! D47   D(24,15,20,23)         58.9455         estimate D2E/DX2                !
 ! D48   D(28,15,20,21)        -62.9041         estimate D2E/DX2                !
 ! D49   D(28,15,20,22)         57.3448         estimate D2E/DX2                !
 ! D50   D(28,15,20,23)        177.1753         estimate D2E/DX2                !
 ! D51   D(16,15,24,25)       -178.8051         estimate D2E/DX2                !
 ! D52   D(16,15,24,26)        -58.9074         estimate D2E/DX2                !
 ! D53   D(16,15,24,27)         61.5266         estimate D2E/DX2                !
 ! D54   D(20,15,24,25)         61.541          estimate D2E/DX2                !
 ! D55   D(20,15,24,26)       -178.5613         estimate D2E/DX2                !
 ! D56   D(20,15,24,27)        -58.1272         estimate D2E/DX2                !
 ! D57   D(28,15,24,25)        -58.8439         estimate D2E/DX2                !
 ! D58   D(28,15,24,26)         61.0538         estimate D2E/DX2                !
 ! D59   D(28,15,24,27)       -178.5122         estimate D2E/DX2                !
 ! D60   D(16,15,28,29)         69.0987         estimate D2E/DX2                !
 ! D61   D(16,15,28,30)       -174.9007         estimate D2E/DX2                !
 ! D62   D(16,15,28,31)        -53.3156         estimate D2E/DX2                !
 ! D63   D(20,15,28,29)       -168.6807         estimate D2E/DX2                !
 ! D64   D(20,15,28,30)        -52.6801         estimate D2E/DX2                !
 ! D65   D(20,15,28,31)         68.905          estimate D2E/DX2                !
 ! D66   D(24,15,28,29)        -49.5307         estimate D2E/DX2                !
 ! D67   D(24,15,28,30)         66.4699         estimate D2E/DX2                !
 ! D68   D(24,15,28,31)       -171.9451         estimate D2E/DX2                !
 ! D69   D(15,16,19,44)        -15.7105         estimate D2E/DX2                !
 ! D70   D(17,16,19,44)       -135.2954         estimate D2E/DX2                !
 ! D71   D(18,16,19,44)        102.6044         estimate D2E/DX2                !
 ! D72   D(16,19,44,26)        -20.0906         estimate D2E/DX2                !
 ! D73   D(16,19,44,41)       -119.6287         estimate D2E/DX2                !
 ! D74   D(16,19,44,45)        107.1144         estimate D2E/DX2                !
 ! D75   D(15,24,26,44)          7.3698         estimate D2E/DX2                !
 ! D76   D(25,24,26,44)        125.9896         estimate D2E/DX2                !
 ! D77   D(27,24,26,44)       -111.6012         estimate D2E/DX2                !
 ! D78   D(24,26,44,19)         25.4431         estimate D2E/DX2                !
 ! D79   D(24,26,44,41)        140.8283         estimate D2E/DX2                !
 ! D80   D(24,26,44,45)        -80.6028         estimate D2E/DX2                !
 ! D81   D(15,28,30,62)        153.4655         estimate D2E/DX2                !
 ! D82   D(29,28,30,62)        -92.2994         estimate D2E/DX2                !
 ! D83   D(31,28,30,62)         27.6286         estimate D2E/DX2                !
 ! D84   D(15,28,31,32)        -50.7904         estimate D2E/DX2                !
 ! D85   D(15,28,31,33)         69.0074         estimate D2E/DX2                !
 ! D86   D(15,28,31,34)       -171.0536         estimate D2E/DX2                !
 ! D87   D(29,28,31,32)       -171.2249         estimate D2E/DX2                !
 ! D88   D(29,28,31,33)        -51.4272         estimate D2E/DX2                !
 ! D89   D(29,28,31,34)         68.5119         estimate D2E/DX2                !
 ! D90   D(30,28,31,32)         69.5197         estimate D2E/DX2                !
 ! D91   D(30,28,31,33)       -170.6825         estimate D2E/DX2                !
 ! D92   D(30,28,31,34)        -50.7435         estimate D2E/DX2                !
 ! D93   D(28,30,62,50)       -162.1197         estimate D2E/DX2                !
 ! D94   D(28,30,62,63)        -31.9672         estimate D2E/DX2                !
 ! D95   D(28,31,34,35)       -165.3846         estimate D2E/DX2                !
 ! D96   D(32,31,34,35)         74.5262         estimate D2E/DX2                !
 ! D97   D(33,31,34,35)        -46.1635         estimate D2E/DX2                !
 ! D98   D(37,36,39,40)         58.4507         estimate D2E/DX2                !
 ! D99   D(37,36,39,41)        -63.574          estimate D2E/DX2                !
 ! D100  D(37,36,39,46)        178.6489         estimate D2E/DX2                !
 ! D101  D(38,36,39,40)        178.7059         estimate D2E/DX2                !
 ! D102  D(38,36,39,41)         56.6811         estimate D2E/DX2                !
 ! D103  D(38,36,39,46)        -61.096          estimate D2E/DX2                !
 ! D104  D(48,36,39,40)        -61.6814         estimate D2E/DX2                !
 ! D105  D(48,36,39,41)        176.2938         estimate D2E/DX2                !
 ! D106  D(48,36,39,46)         58.5168         estimate D2E/DX2                !
 ! D107  D(37,36,48,49)         70.4658         estimate D2E/DX2                !
 ! D108  D(38,36,48,49)        -51.4402         estimate D2E/DX2                !
 ! D109  D(39,36,48,49)       -170.1534         estimate D2E/DX2                !
 ! D110  D(36,39,41,42)         69.2336         estimate D2E/DX2                !
 ! D111  D(36,39,41,43)        -51.5511         estimate D2E/DX2                !
 ! D112  D(36,39,41,44)       -172.2701         estimate D2E/DX2                !
 ! D113  D(40,39,41,42)        -52.2952         estimate D2E/DX2                !
 ! D114  D(40,39,41,43)       -173.0799         estimate D2E/DX2                !
 ! D115  D(40,39,41,44)         66.2011         estimate D2E/DX2                !
 ! D116  D(46,39,41,42)       -169.7596         estimate D2E/DX2                !
 ! D117  D(46,39,41,43)         69.4557         estimate D2E/DX2                !
 ! D118  D(46,39,41,44)        -51.2633         estimate D2E/DX2                !
 ! D119  D(36,39,46,47)        -48.5932         estimate D2E/DX2                !
 ! D120  D(40,39,46,47)         71.1494         estimate D2E/DX2                !
 ! D121  D(41,39,46,47)       -171.3006         estimate D2E/DX2                !
 ! D122  D(39,41,44,19)        -96.1103         estimate D2E/DX2                !
 ! D123  D(39,41,44,26)       -166.9438         estimate D2E/DX2                !
 ! D124  D(39,41,44,45)         42.7516         estimate D2E/DX2                !
 ! D125  D(42,41,44,19)         24.6253         estimate D2E/DX2                !
 ! D126  D(42,41,44,26)        -46.2082         estimate D2E/DX2                !
 ! D127  D(42,41,44,45)        163.4872         estimate D2E/DX2                !
 ! D128  D(43,41,44,19)        142.931          estimate D2E/DX2                !
 ! D129  D(43,41,44,26)         72.0976         estimate D2E/DX2                !
 ! D130  D(43,41,44,45)        -78.207          estimate D2E/DX2                !
 ! D131  D(51,50,53,54)       -129.4326         estimate D2E/DX2                !
 ! D132  D(51,50,53,55)        107.1717         estimate D2E/DX2                !
 ! D133  D(51,50,53,60)        -10.0115         estimate D2E/DX2                !
 ! D134  D(52,50,53,54)         -7.4178         estimate D2E/DX2                !
 ! D135  D(52,50,53,55)       -130.8135         estimate D2E/DX2                !
 ! D136  D(52,50,53,60)        112.0033         estimate D2E/DX2                !
 ! D137  D(62,50,53,54)        111.2549         estimate D2E/DX2                !
 ! D138  D(62,50,53,55)        -12.1408         estimate D2E/DX2                !
 ! D139  D(62,50,53,60)       -129.324          estimate D2E/DX2                !
 ! D140  D(51,50,62,30)         41.371          estimate D2E/DX2                !
 ! D141  D(51,50,62,63)       -117.911          estimate D2E/DX2                !
 ! D142  D(52,50,62,30)        -80.3541         estimate D2E/DX2                !
 ! D143  D(52,50,62,63)        120.364          estimate D2E/DX2                !
 ! D144  D(53,50,62,30)        160.8655         estimate D2E/DX2                !
 ! D145  D(53,50,62,63)          1.5836         estimate D2E/DX2                !
 ! D146  D(50,53,55,56)         65.5191         estimate D2E/DX2                !
 ! D147  D(50,53,55,57)        -55.6048         estimate D2E/DX2                !
 ! D148  D(50,53,55,58)       -177.2329         estimate D2E/DX2                !
 ! D149  D(54,53,55,56)        -57.656          estimate D2E/DX2                !
 ! D150  D(54,53,55,57)       -178.7799         estimate D2E/DX2                !
 ! D151  D(54,53,55,58)         59.592          estimate D2E/DX2                !
 ! D152  D(60,53,55,56)       -174.5826         estimate D2E/DX2                !
 ! D153  D(60,53,55,57)         64.2935         estimate D2E/DX2                !
 ! D154  D(60,53,55,58)        -57.3345         estimate D2E/DX2                !
 ! D155  D(50,53,60,61)        -51.2632         estimate D2E/DX2                !
 ! D156  D(54,53,60,61)         68.5639         estimate D2E/DX2                !
 ! D157  D(55,53,60,61)       -173.7815         estimate D2E/DX2                !
 ! D158  D(53,55,58,59)         49.1575         estimate D2E/DX2                !
 ! D159  D(56,55,58,59)        169.6175         estimate D2E/DX2                !
 ! D160  D(57,55,58,59)        -72.0874         estimate D2E/DX2                !
 --------------------------------------------------------------------------------
 Trust Radius=3.00D-01 FncErr=1.00D-07 GrdErr=1.00D-06 EigMax=2.50D+02 EigMin=1.00D-04
 Number of steps in this run=    347 maximum allowed number of steps=    378.
 GradGradGradGradGradGradGradGradGradGradGradGradGradGradGradGradGradGrad

 Leave Link  103 at Thu Apr 02 14:46:27 2026, MaxMem=  8589934592 cpu:               0.0 elap:               0.3
 (Enter C:\G16W\l202.exe)
 Stoichiometry    C14H38NO10(1+)
 Framework group  C1[X(C14H38NO10)]
 Deg. of freedom   183
 Full point group                 C1      NOp   1
 Largest Abelian subgroup         C1      NOp   1
 Largest concise Abelian subgroup C1      NOp   1
                         Standard orientation:                         
 ---------------------------------------------------------------------
 Center     Atomic      Atomic             Coordinates (Angstroms)
 Number     Number       Type             X           Y           Z
 ---------------------------------------------------------------------
      1          6           0       -5.329162    3.827013    0.029114
      2          1           0       -5.943132    2.932984   -0.148897
      3          1           0       -5.644435    4.301201    0.968249
      4          6           0       -3.859331    3.444020    0.116352
      5          1           0       -3.566449    2.950639   -0.822666
      6          6           0       -3.547779    2.527535    1.290904
      7          1           0       -3.989572    1.538298    1.148574
      8          1           0       -3.928614    2.962253    2.223277
      9          8           0       -2.127891    2.342483    1.402843
     10          1           0       -1.731087    3.219419    1.266024
     11          8           0       -3.047173    4.601297    0.319450
     12          1           0       -3.305188    5.262947   -0.339683
     13          8           0       -5.420380    4.742920   -1.062451
     14          1           0       -6.293520    5.153644   -1.080023
     15          7           0        1.494489   -2.345508    1.087351
     16          6           0        2.343440   -1.622695    2.101365
     17          1           0        1.695168   -1.170152    2.849944
     18          1           0        3.000190   -2.351447    2.577938
     19          1           0        2.925285   -0.865119    1.574707
     20          6           0        0.625992   -3.357909    1.779940
     21          1           0       -0.018442   -2.853075    2.496918
     22          1           0        0.021526   -3.872234    1.032694
     23          1           0        1.267536   -4.071334    2.297807
     24          6           0        2.402172   -3.058054    0.117118
     25          1           0        1.786439   -3.562611   -0.627889
     26          1           0        3.040379   -2.311600   -0.355215
     27          1           0        2.996623   -3.788351    0.667180
     28          6           0        0.652255   -1.360916    0.287961
     29          1           0        1.348234   -0.801126   -0.335747
     30          1           0        0.001599   -1.956230   -0.356134
     31          6           0       -0.204752   -0.396407    1.107599
     32          1           0       -0.806512   -0.932928    1.858057
     33          1           0        0.428164    0.326239    1.640219
     34          8           0       -1.015496    0.232717    0.147171
     35          1           0       -1.430933    1.031441    0.551000
     36          6           0        7.021104    1.746116   -0.699345
     37          1           0        7.702285    1.104641   -0.122613
     38          1           0        7.149880    1.539153   -1.770222
     39          6           0        5.579080    1.477627   -0.294496
     40          1           0        5.474977    1.667746    0.784663
     41          6           0        5.118258    0.060572   -0.609105
     42          1           0        5.621452   -0.666666    0.034143
     43          1           0        5.333063   -0.179867   -1.658496
     44          8           0        3.708121   -0.058117   -0.366602
     45          1           0        3.320865    0.755525   -0.733464
     46          8           0        4.685928    2.327200   -1.014558
     47          1           0        5.025400    3.233100   -0.955343
     48          8           0        7.242653    3.126532   -0.413528
     49          1           0        8.086223    3.413699   -0.784453
     50          6           0       -1.153011   -3.196405   -1.032923
     51          1           0       -0.752678   -3.681956   -0.134343
     52          1           0       -0.564997   -3.490240   -1.911120
     53          6           0       -2.615171   -3.555000   -1.233052
     54          1           0       -2.769604   -3.904559   -2.262140
     55          6           0       -3.572327   -2.413566   -0.924074
     56          1           0       -3.441988   -1.588011   -1.626881
     57          1           0       -3.398481   -2.053472    0.099118
     58          8           0       -4.949305   -2.852351   -1.075719
     59          1           0       -5.058992   -3.695386   -0.585976
     60          8           0       -2.992163   -4.626203   -0.307486
     61          1           0       -2.349063   -5.360652   -0.384137
     62          8           0       -1.137467   -1.736477   -0.878855
     63          1           0       -2.032234   -1.348963   -0.912779
 ---------------------------------------------------------------------
 Rotational constants (GHZ):           0.1475464           0.0840925           0.0581434
 Leave Link  202 at Thu Apr 02 14:46:27 2026, MaxMem=  8589934592 cpu:               0.0 elap:               0.3
 (Enter C:\G16W\l301.exe)
 Standard basis: 6-31+G(d,p) (6D, 7F)
 Ernie: Thresh=  0.10000D-02 Tol=  0.10000D-05 Strict=F.
 There are   665 symmetry adapted cartesian basis functions of A   symmetry.
 There are   665 symmetry adapted basis functions of A   symmetry.
   665 basis functions,  1066 primitive gaussians,   665 cartesian basis functions
   104 alpha electrons      104 beta electrons
       nuclear repulsion energy      2476.6146655932 Hartrees.
 IExCor=  402 DFT=T Ex+Corr=B3LYP ExCW=0 ScaHFX=  0.200000
 ScaDFX=  0.800000  0.720000  1.000000  0.810000 ScalE2=  1.000000  1.000000
 IRadAn=      5 IRanWt=     -1 IRanGd=            0 ICorTp=0 IEmpDi=141
 NAtoms=   63 NActive=   63 NUniq=   63 SFac= 1.00D+00 NAtFMM=   60 NAOKFM=T Big=T
 Integral buffers will be    131072 words long.
 Raffenetti 2 integral format.
 Two-electron integral symmetry is turned on.
 R6Disp:  Grimme-D3(BJ) Dispersion energy=       -0.0994544319 Hartrees.
 Nuclear repulsion after empirical dispersion term =     2476.5152111613 Hartrees.
 Leave Link  301 at Thu Apr 02 14:46:28 2026, MaxMem=  8589934592 cpu:               1.0 elap:               0.3
 (Enter C:\G16W\l302.exe)
 NPDir=0 NMtPBC=     1 NCelOv=     1 NCel=       1 NClECP=     1 NCelD=      1
         NCelK=      1 NCelE2=     1 NClLst=     1 CellRange=     0.0.
 One-electron integrals computed using PRISM.
 One-electron integral symmetry used in STVInt
 NBasis=   665 RedAO= T EigKep=  1.10D-05  NBF=   665
 NBsUse=   665 1.00D-06 EigRej= -1.00D+00 NBFU=   665
 Precomputing XC quadrature grid using
 IXCGrd= 4 IRadAn=           5 IRanWt=          -1 IRanGd=           0 AccXCQ= 0.00D+00.
 Generated NRdTot=       0 NPtTot=           0 NUsed=           0 NTot=          32
 NSgBfM=   643   643   643   643   643 MxSgAt=    63 MxSgA2=    63.
 Leave Link  302 at Thu Apr 02 14:46:30 2026, MaxMem=  8589934592 cpu:               2.0 elap:               2.6
 (Enter C:\G16W\l303.exe)
 DipDrv:  MaxL=1.
 Leave Link  303 at Thu Apr 02 14:46:31 2026, MaxMem=  8589934592 cpu:               1.0 elap:               0.3
 (Enter C:\G16W\l401.exe)
 ExpMin= 4.38D-02 ExpMax= 5.48D+03 ExpMxC= 8.25D+02 IAcc=3 IRadAn=         5 AccDes= 0.00D+00
 Harris functional with IExCor=  402 and IRadAn=       5 diagonalized for initial guess.
 HarFok:  IExCor=  402 AccDes= 0.00D+00 IRadAn=         5 IDoV= 1 UseB2=F ITyADJ=14
 ICtDFT=  3500011 ScaDFX=  1.000000  1.000000  1.000000  1.000000
 FoFCou: FMM=F IPFlag=           0 FMFlag=      100000 FMFlg1=        2001
         NFxFlg=           0 DoJE=T BraDBF=F KetDBF=T FulRan=T
         wScrn=  0.000000 ICntrl=       500 IOpCl=  0 I1Cent=   200000004 NGrid=           0
         NMat0=    1 NMatS0=      1 NMatT0=    0 NMatD0=    1 NMtDS0=    0 NMtDT0=    0
 Petite list used in FoFCou.
 Harris En= -1363.19320713963    
 JPrj=0 DoOrth=F DoCkMO=F.
 Leave Link  401 at Thu Apr 02 14:46:38 2026, MaxMem=  8589934592 cpu:               7.0 elap:               7.8
 (Enter C:\G16W\l502.exe)
 Integral symmetry usage will be decided dynamically.
 Closed shell SCF:
 Using DIIS extrapolation, IDIIS=  1040.
 NGot=  8589934592 LenX=  8589031040 LenY=  8588588150
 Requested convergence on RMS density matrix=1.00D-08 within 128 cycles.
 Requested convergence on MAX density matrix=1.00D-06.
 Requested convergence on             energy=1.00D-06.
 No special actions if energy rises.
 Fock matrices will be formed incrementally for  20 cycles.

 Cycle   1  Pass 1  IDiag  1:
 FoFJK:  IHMeth= 1 ICntrl=       0 DoSepK=F KAlg= 0 I1Cent=           0 FoldK=F
 IRaf= 870000000 NMat=       1 IRICut=       1 DoRegI=T DoRafI=F ISym2E= 0 IDoP0=0 IntGTp=1.
 FoFCou: FMM=T IPFlag=           0 FMFlag=      100000 FMFlg1=        2001
         NFxFlg=           0 DoJE=F BraDBF=F KetDBF=F FulRan=T
         wScrn=  0.000000 ICntrl=         0 IOpCl=  0 I1Cent=           0 NGrid=           0
         NMat0=    1 NMatS0=      1 NMatT0=    0 NMatD0=    1 NMtDS0=    0 NMtDT0=    0
 Symmetry not used in FoFCou.
 FMM levels:  10  Number of levels for PrismC:   9
 E= -1362.51882613084    
 DIIS: error= 1.43D-02 at cycle   1 NSaved=   1.
 NSaved= 1 IEnMin= 1 EnMin= -1362.51882613084     IErMin= 1 ErrMin= 1.43D-02
 ErrMax= 1.43D-02  0.00D+00 EMaxC= 1.00D-01 BMatC= 7.65D-01 BMatP= 7.65D-01
 IDIUse=3 WtCom= 8.57D-01 WtEn= 1.43D-01
 Coeff-Com:  0.100D+01
 Coeff-En:   0.100D+01
 Coeff:      0.100D+01
 Gap=     0.206 Goal=   None    Shift=    0.000
 GapD=    0.206 DampG=1.000 DampE=0.500 DampFc=0.5000 IDamp=-1.
 Damping current iteration by 5.00D-01
 RMSDP=1.32D-02 MaxDP=3.24D+00              OVMax= 2.09D-01

 Cycle   2  Pass 1  IDiag  1:
 RMSU=  6.10D-03    CP:  1.18D+00
 E= -1362.73356673406     Delta-E=       -0.214740603225 Rises=F Damp=T
 DIIS: error= 4.81D-03 at cycle   2 NSaved=   2.
 NSaved= 2 IEnMin= 2 EnMin= -1362.73356673406     IErMin= 2 ErrMin= 4.81D-03
 ErrMax= 4.81D-03  0.00D+00 EMaxC= 1.00D-01 BMatC= 8.28D-02 BMatP= 7.65D-01
 IDIUse=3 WtCom= 9.52D-01 WtEn= 4.81D-02
 Coeff-Com:  0.179D+00 0.821D+00
 Coeff-En:   0.287D+00 0.713D+00
 Coeff:      0.184D+00 0.816D+00
 Gap=     0.265 Goal=   None    Shift=    0.000
 RMSDP=5.30D-03 MaxDP=1.60D+00 DE=-2.15D-01 OVMax= 1.27D-01

 Cycle   3  Pass 1  IDiag  1:
 RMSU=  2.03D-03    CP:  9.94D-01  3.15D-01
 E= -1363.14020614130     Delta-E=       -0.406639407239 Rises=F Damp=F
 DIIS: error= 2.62D-03 at cycle   3 NSaved=   3.
 NSaved= 3 IEnMin= 3 EnMin= -1363.14020614130     IErMin= 3 ErrMin= 2.62D-03
 ErrMax= 2.62D-03  0.00D+00 EMaxC= 1.00D-01 BMatC= 2.89D-02 BMatP= 8.28D-02
 IDIUse=3 WtCom= 9.74D-01 WtEn= 2.62D-02
 Coeff-Com:  0.240D-01 0.362D+00 0.614D+00
 Coeff-En:   0.000D+00 0.000D+00 0.100D+01
 Coeff:      0.233D-01 0.353D+00 0.624D+00
 Gap=     0.245 Goal=   None    Shift=    0.000
 RMSDP=6.68D-04 MaxDP=1.07D-01 DE=-4.07D-01 OVMax= 2.21D-02

 Cycle   4  Pass 1  IDiag  1:
 RMSU=  5.99D-04    CP:  1.00D+00  3.59D-01  9.74D-01
 E= -1363.15979215636     Delta-E=       -0.019586015061 Rises=F Damp=F
 DIIS: error= 1.63D-03 at cycle   4 NSaved=   4.
 NSaved= 4 IEnMin= 4 EnMin= -1363.15979215636     IErMin= 4 ErrMin= 1.63D-03
 ErrMax= 1.63D-03  0.00D+00 EMaxC= 1.00D-01 BMatC= 5.16D-03 BMatP= 2.89D-02
 IDIUse=3 WtCom= 9.84D-01 WtEn= 1.63D-02
 Coeff-Com: -0.668D-02 0.866D-01 0.327D+00 0.593D+00
 Coeff-En:   0.000D+00 0.000D+00 0.140D+00 0.860D+00
 Coeff:     -0.657D-02 0.852D-01 0.324D+00 0.598D+00
 Gap=     0.244 Goal=   None    Shift=    0.000
 RMSDP=2.65D-04 MaxDP=1.91D-02 DE=-1.96D-02 OVMax= 7.94D-03

 Cycle   5  Pass 1  IDiag  1:
 RMSU=  1.60D-04    CP:  1.00D+00  3.56D-01  9.67D-01  6.48D-01
 E= -1363.16425419862     Delta-E=       -0.004462042251 Rises=F Damp=F
 DIIS: error= 2.30D-04 at cycle   5 NSaved=   5.
 NSaved= 5 IEnMin= 5 EnMin= -1363.16425419862     IErMin= 5 ErrMin= 2.30D-04
 ErrMax= 2.30D-04  0.00D+00 EMaxC= 1.00D-01 BMatC= 1.90D-04 BMatP= 5.16D-03
 IDIUse=3 WtCom= 9.98D-01 WtEn= 2.30D-03
 Coeff-Com: -0.391D-02 0.158D-01 0.991D-01 0.251D+00 0.638D+00
 Coeff-En:   0.000D+00 0.000D+00 0.000D+00 0.000D+00 0.100D+01
 Coeff:     -0.390D-02 0.158D-01 0.988D-01 0.250D+00 0.639D+00
 Gap=     0.242 Goal=   None    Shift=    0.000
 RMSDP=6.71D-05 MaxDP=8.85D-03 DE=-4.46D-03 OVMax= 2.11D-03

 Cycle   6  Pass 1  IDiag  1:
 RMSU=  5.43D-05    CP:  1.00D+00  3.55D-01  9.70D-01  6.85D-01  8.14D-01
 E= -1363.16436374388     Delta-E=       -0.000109545267 Rises=F Damp=F
 DIIS: error= 1.13D-04 at cycle   6 NSaved=   6.
 NSaved= 6 IEnMin= 6 EnMin= -1363.16436374388     IErMin= 6 ErrMin= 1.13D-04
 ErrMax= 1.13D-04  0.00D+00 EMaxC= 1.00D-01 BMatC= 4.67D-05 BMatP= 1.90D-04
 IDIUse=3 WtCom= 9.99D-01 WtEn= 1.13D-03
 Coeff-Com: -0.186D-02 0.264D-02 0.336D-01 0.105D+00 0.393D+00 0.467D+00
 Coeff-En:   0.000D+00 0.000D+00 0.000D+00 0.000D+00 0.163D+00 0.837D+00
 Coeff:     -0.185D-02 0.263D-02 0.336D-01 0.105D+00 0.393D+00 0.468D+00
 Gap=     0.243 Goal=   None    Shift=    0.000
 RMSDP=2.84D-05 MaxDP=6.67D-03 DE=-1.10D-04 OVMax= 8.44D-04

 Cycle   7  Pass 1  IDiag  1:
 RMSU=  1.41D-05    CP:  1.00D+00  3.52D-01  9.74D-01  6.78D-01  7.97D-01
                    CP:  6.87D-01
 E= -1363.16439886107     Delta-E=       -0.000035117184 Rises=F Damp=F
 DIIS: error= 1.41D-05 at cycle   7 NSaved=   7.
 NSaved= 7 IEnMin= 7 EnMin= -1363.16439886107     IErMin= 7 ErrMin= 1.41D-05
 ErrMax= 1.41D-05  0.00D+00 EMaxC= 1.00D-01 BMatC= 6.20D-07 BMatP= 4.67D-05
 IDIUse=1 WtCom= 1.00D+00 WtEn= 0.00D+00
 Coeff-Com: -0.496D-03 0.219D-03 0.813D-02 0.291D-01 0.123D+00 0.182D+00
 Coeff-Com:  0.657D+00
 Coeff:     -0.496D-03 0.219D-03 0.813D-02 0.291D-01 0.123D+00 0.182D+00
 Coeff:      0.657D+00
 Gap=     0.243 Goal=   None    Shift=    0.000
 RMSDP=5.97D-06 MaxDP=1.26D-03 DE=-3.51D-05 OVMax= 9.45D-05

 Cycle   8  Pass 1  IDiag  1:
 RMSU=  3.65D-06    CP:  1.00D+00  3.53D-01  9.73D-01  6.81D-01  8.07D-01
                    CP:  6.91D-01  8.27D-01
 E= -1363.16439932179     Delta-E=       -0.000000460719 Rises=F Damp=F
 DIIS: error= 7.20D-06 at cycle   8 NSaved=   8.
 NSaved= 8 IEnMin= 8 EnMin= -1363.16439932179     IErMin= 8 ErrMin= 7.20D-06
 ErrMax= 7.20D-06  0.00D+00 EMaxC= 1.00D-01 BMatC= 8.52D-08 BMatP= 6.20D-07
 IDIUse=1 WtCom= 1.00D+00 WtEn= 0.00D+00
 Coeff-Com: -0.727D-04-0.122D-03 0.954D-03 0.483D-02 0.237D-01 0.450D-01
 Coeff-Com:  0.313D+00 0.613D+00
 Coeff:     -0.727D-04-0.122D-03 0.954D-03 0.483D-02 0.237D-01 0.450D-01
 Coeff:      0.313D+00 0.613D+00
 Gap=     0.243 Goal=   None    Shift=    0.000
 RMSDP=2.50D-06 MaxDP=7.49D-04 DE=-4.61D-07 OVMax= 3.71D-05

 Cycle   9  Pass 1  IDiag  1:
 RMSU=  1.05D-06    CP:  1.00D+00  3.53D-01  9.73D-01  6.80D-01  8.07D-01
                    CP:  6.85D-01  8.52D-01  7.21D-01
 E= -1363.16439939514     Delta-E=       -0.000000073357 Rises=F Damp=F
 DIIS: error= 1.90D-06 at cycle   9 NSaved=   9.
 NSaved= 9 IEnMin= 9 EnMin= -1363.16439939514     IErMin= 9 ErrMin= 1.90D-06
 ErrMax= 1.90D-06  0.00D+00 EMaxC= 1.00D-01 BMatC= 7.32D-09 BMatP= 8.52D-08
 IDIUse=1 WtCom= 1.00D+00 WtEn= 0.00D+00
 Coeff-Com:  0.103D-04-0.725D-04-0.276D-03-0.270D-03-0.482D-04 0.500D-02
 Coeff-Com:  0.864D-01 0.285D+00 0.624D+00
 Coeff:      0.103D-04-0.725D-04-0.276D-03-0.270D-03-0.482D-04 0.500D-02
 Coeff:      0.864D-01 0.285D+00 0.624D+00
 Gap=     0.243 Goal=   None    Shift=    0.000
 RMSDP=7.19D-07 MaxDP=1.59D-04 DE=-7.34D-08 OVMax= 1.31D-05

 Cycle  10  Pass 1  IDiag  1:
 RMSU=  2.85D-07    CP:  1.00D+00  3.53D-01  9.73D-01  6.80D-01  8.07D-01
                    CP:  6.91D-01  8.66D-01  7.31D-01  6.94D-01
 E= -1363.16439940039     Delta-E=       -0.000000005252 Rises=F Damp=F
 DIIS: error= 1.01D-06 at cycle  10 NSaved=  10.
 NSaved=10 IEnMin=10 EnMin= -1363.16439940039     IErMin=10 ErrMin= 1.01D-06
 ErrMax= 1.01D-06  0.00D+00 EMaxC= 1.00D-01 BMatC= 1.15D-09 BMatP= 7.32D-09
 IDIUse=1 WtCom= 1.00D+00 WtEn= 0.00D+00
 Coeff-Com:  0.102D-04-0.320D-04-0.227D-03-0.486D-03-0.178D-02-0.470D-03
 Coeff-Com:  0.250D-01 0.115D+00 0.358D+00 0.505D+00
 Coeff:      0.102D-04-0.320D-04-0.227D-03-0.486D-03-0.178D-02-0.470D-03
 Coeff:      0.250D-01 0.115D+00 0.358D+00 0.505D+00
 Gap=     0.243 Goal=   None    Shift=    0.000
 RMSDP=1.31D-07 MaxDP=2.67D-05 DE=-5.25D-09 OVMax= 4.39D-06

 Cycle  11  Pass 1  IDiag  1:
 RMSU=  6.64D-08    CP:  1.00D+00  3.53D-01  9.73D-01  6.80D-01  8.07D-01
                    CP:  6.90D-01  8.67D-01  7.29D-01  7.36D-01  7.73D-01
 E= -1363.16439940132     Delta-E=       -0.000000000925 Rises=F Damp=F
 DIIS: error= 1.44D-07 at cycle  11 NSaved=  11.
 NSaved=11 IEnMin=11 EnMin= -1363.16439940132     IErMin=11 ErrMin= 1.44D-07
 ErrMax= 1.44D-07  0.00D+00 EMaxC= 1.00D-01 BMatC= 4.02D-11 BMatP= 1.15D-09
 IDIUse=1 WtCom= 1.00D+00 WtEn= 0.00D+00
 Coeff-Com:  0.245D-05-0.467D-05-0.678D-04-0.170D-03-0.735D-03-0.678D-03
 Coeff-Com:  0.185D-02 0.188D-01 0.852D-01 0.201D+00 0.694D+00
 Coeff:      0.245D-05-0.467D-05-0.678D-04-0.170D-03-0.735D-03-0.678D-03
 Coeff:      0.185D-02 0.188D-01 0.852D-01 0.201D+00 0.694D+00
 Gap=     0.243 Goal=   None    Shift=    0.000
 RMSDP=4.50D-08 MaxDP=5.25D-06 DE=-9.25D-10 OVMax= 9.45D-07

 Cycle  12  Pass 1  IDiag  1:
 RMSU=  2.23D-08    CP:  1.00D+00  3.53D-01  9.73D-01  6.80D-01  8.07D-01
                    CP:  6.90D-01  8.66D-01  7.36D-01  7.42D-01  7.45D-01
                    CP:  8.11D-01
 E= -1363.16439940147     Delta-E=       -0.000000000156 Rises=F Damp=F
 DIIS: error= 3.71D-08 at cycle  12 NSaved=  12.
 NSaved=12 IEnMin=12 EnMin= -1363.16439940147     IErMin=12 ErrMin= 3.71D-08
 ErrMax= 3.71D-08  0.00D+00 EMaxC= 1.00D-01 BMatC= 2.40D-12 BMatP= 4.02D-11
 IDIUse=1 WtCom= 1.00D+00 WtEn= 0.00D+00
 Coeff-Com:  0.149D-06 0.487D-06-0.121D-04-0.349D-04-0.167D-03-0.223D-03
 Coeff-Com: -0.808D-03 0.598D-04 0.995D-02 0.435D-01 0.264D+00 0.684D+00
 Coeff:      0.149D-06 0.487D-06-0.121D-04-0.349D-04-0.167D-03-0.223D-03
 Coeff:     -0.808D-03 0.598D-04 0.995D-02 0.435D-01 0.264D+00 0.684D+00
 Gap=     0.243 Goal=   None    Shift=    0.000
 RMSDP=1.23D-08 MaxDP=1.69D-06 DE=-1.56D-10 OVMax= 2.34D-07

 Cycle  13  Pass 1  IDiag  1:
 RMSU=  5.26D-09    CP:  1.00D+00  3.53D-01  9.73D-01  6.80D-01  8.07D-01
                    CP:  6.90D-01  8.66D-01  7.35D-01  7.42D-01  7.62D-01
                    CP:  8.59D-01  7.60D-01
 E= -1363.16439940145     Delta-E=        0.000000000029 Rises=F Damp=F
 DIIS: error= 1.14D-08 at cycle  13 NSaved=  13.
 NSaved=13 IEnMin=12 EnMin= -1363.16439940147     IErMin=13 ErrMin= 1.14D-08
 ErrMax= 1.14D-08  0.00D+00 EMaxC= 1.00D-01 BMatC= 3.21D-13 BMatP= 2.40D-12
 IDIUse=1 WtCom= 1.00D+00 WtEn= 0.00D+00
 Coeff-Com: -0.120D-06 0.555D-06-0.153D-05-0.641D-05-0.351D-04-0.686D-04
 Coeff-Com: -0.562D-03-0.132D-02-0.931D-03 0.812D-02 0.896D-01 0.346D+00
 Coeff-Com:  0.559D+00
 Coeff:     -0.120D-06 0.555D-06-0.153D-05-0.641D-05-0.351D-04-0.686D-04
 Coeff:     -0.562D-03-0.132D-02-0.931D-03 0.812D-02 0.896D-01 0.346D+00
 Coeff:      0.559D+00
 Gap=     0.243 Goal=   None    Shift=    0.000
 RMSDP=3.94D-09 MaxDP=1.17D-06 DE= 2.91D-11 OVMax= 6.41D-08

 Cycle  14  Pass 1  IDiag  1:
 RMSU=  1.64D-09    CP:  1.00D+00  3.53D-01  9.73D-01  6.80D-01  8.07D-01
                    CP:  6.90D-01  8.66D-01  7.34D-01  7.42D-01  7.65D-01
                    CP:  8.65D-01  7.85D-01  8.34D-01
 E= -1363.16439940136     Delta-E=        0.000000000088 Rises=F Damp=F
 DIIS: error= 3.93D-09 at cycle  14 NSaved=  14.
 NSaved=14 IEnMin=12 EnMin= -1363.16439940147     IErMin=14 ErrMin= 3.93D-09
 ErrMax= 3.93D-09  0.00D+00 EMaxC= 1.00D-01 BMatC= 3.12D-14 BMatP= 3.21D-13
 IDIUse=1 WtCom= 1.00D+00 WtEn= 0.00D+00
 Coeff-Com: -0.744D-07 0.224D-06 0.515D-06 0.480D-06 0.118D-05-0.692D-05
 Coeff-Com: -0.169D-03-0.598D-03-0.139D-02-0.616D-03 0.155D-01 0.924D-01
 Coeff-Com:  0.282D+00 0.613D+00
 Coeff:     -0.744D-07 0.224D-06 0.515D-06 0.480D-06 0.118D-05-0.692D-05
 Coeff:     -0.169D-03-0.598D-03-0.139D-02-0.616D-03 0.155D-01 0.924D-01
 Coeff:      0.282D+00 0.613D+00
 Gap=     0.243 Goal=   None    Shift=    0.000
 RMSDP=8.21D-10 MaxDP=4.51D-08 DE= 8.82D-11 OVMax= 2.25D-08

 SCF Done:  E(RB3LYP) =  -1363.16439940     A.U. after   14 cycles
            NFock= 14  Conv=0.82D-09     -V/T= 2.0088
 KE= 1.351322896939D+03 PE=-8.118397062440D+03 EE= 2.927394554938D+03
 Leave Link  502 at Thu Apr 02 14:49:59 2026, MaxMem=  8589934592 cpu:             201.0 elap:             200.2
 (Enter C:\G16W\l601.exe)
 Copying SCF densities to generalized density rwf, IOpCl= 0 IROHF=0.

 **********************************************************************

            Population analysis using the SCF Density.

 **********************************************************************

 Orbital symmetries:
       Occupied  (A) (A) (A) (A) (A) (A) (A) (A) (A) (A) (A) (A)
                 (A) (A) (A) (A) (A) (A) (A) (A) (A) (A) (A) (A)
                 (A) (A) (A) (A) (A) (A) (A) (A) (A) (A) (A) (A)
                 (A) (A) (A) (A) (A) (A) (A) (A) (A) (A) (A) (A)
                 (A) (A) (A) (A) (A) (A) (A) (A) (A) (A) (A) (A)
                 (A) (A) (A) (A) (A) (A) (A) (A) (A) (A) (A) (A)
                 (A) (A) (A) (A) (A) (A) (A) (A) (A) (A) (A) (A)
                 (A) (A) (A) (A) (A) (A) (A) (A) (A) (A) (A) (A)
                 (A) (A) (A) (A) (A) (A) (A) (A)
       Virtual   (A) (A) (A) (A) (A) (A) (A) (A) (A) (A) (A) (A)
                 (A) (A) (A) (A) (A) (A) (A) (A) (A) (A) (A) (A)
                 (A) (A) (A) (A) (A) (A) (A) (A) (A) (A) (A) (A)
                 (A) (A) (A) (A) (A) (A) (A) (A) (A) (A) (A) (A)
                 (A) (A) (A) (A) (A) (A) (A) (A) (A) (A) (A) (A)
                 (A) (A) (A) (A) (A) (A) (A) (A) (A) (A) (A) (A)
                 (A) (A) (A) (A) (A) (A) (A) (A) (A) (A) (A) (A)
                 (A) (A) (A) (A) (A) (A) (A) (A) (A) (A) (A) (A)
                 (A) (A) (A) (A) (A) (A) (A) (A) (A) (A) (A) (A)
                 (A) (A) (A) (A) (A) (A) (A) (A) (A) (A) (A) (A)
                 (A) (A) (A) (A) (A) (A) (A) (A) (A) (A) (A) (A)
                 (A) (A) (A) (A) (A) (A) (A) (A) (A) (A) (A) (A)
                 (A) (A) (A) (A) (A) (A) (A) (A) (A) (A) (A) (A)
                 (A) (A) (A) (A) (A) (A) (A) (A) (A) (A) (A) (A)
                 (A) (A) (A) (A) (A) (A) (A) (A) (A) (A) (A) (A)
                 (A) (A) (A) (A) (A) (A) (A) (A) (A) (A) (A) (A)
                 (A) (A) (A) (A) (A) (A) (A) (A) (A) (A) (A) (A)
                 (A) (A) (A) (A) (A) (A) (A) (A) (A) (A) (A) (A)
                 (A) (A) (A) (A) (A) (A) (A) (A) (A) (A) (A) (A)
                 (A) (A) (A) (A) (A) (A) (A) (A) (A) (A) (A) (A)
                 (A) (A) (A) (A) (A) (A) (A) (A) (A) (A) (A) (A)
                 (A) (A) (A) (A) (A) (A) (A) (A) (A) (A) (A) (A)
                 (A) (A) (A) (A) (A) (A) (A) (A) (A) (A) (A) (A)
                 (A) (A) (A) (A) (A) (A) (A) (A) (A) (A) (A) (A)
                 (A) (A) (A) (A) (A) (A) (A) (A) (A) (A) (A) (A)
                 (A) (A) (A) (A) (A) (A) (A) (A) (A) (A) (A) (A)
                 (A) (A) (A) (A) (A) (A) (A) (A) (A) (A) (A) (A)
                 (A) (A) (A) (A) (A) (A) (A) (A) (A) (A) (A) (A)
                 (A) (A) (A) (A) (A) (A) (A) (A) (A) (A) (A) (A)
                 (A) (A) (A) (A) (A) (A) (A) (A) (A) (A) (A) (A)
                 (A) (A) (A) (A) (A) (A) (A) (A) (A) (A) (A) (A)
                 (A) (A) (A) (A) (A) (A) (A) (A) (A) (A) (A) (A)
                 (A) (A) (A) (A) (A) (A) (A) (A) (A) (A) (A) (A)
                 (A) (A) (A) (A) (A) (A) (A) (A) (A) (A) (A) (A)
                 (A) (A) (A) (A) (A) (A) (A) (A) (A) (A) (A) (A)
                 (A) (A) (A) (A) (A) (A) (A) (A) (A) (A) (A) (A)
                 (A) (A) (A) (A) (A) (A) (A) (A) (A) (A) (A) (A)
                 (A) (A) (A) (A) (A) (A) (A) (A) (A) (A) (A) (A)
                 (A) (A) (A) (A) (A) (A) (A) (A) (A) (A) (A) (A)
                 (A) (A) (A) (A) (A) (A) (A) (A) (A) (A) (A) (A)
                 (A) (A) (A) (A) (A) (A) (A) (A) (A) (A) (A) (A)
                 (A) (A) (A) (A) (A) (A) (A) (A) (A) (A) (A) (A)
                 (A) (A) (A) (A) (A) (A) (A) (A) (A) (A) (A) (A)
                 (A) (A) (A) (A) (A) (A) (A) (A) (A) (A) (A) (A)
                 (A) (A) (A) (A) (A) (A) (A) (A) (A) (A) (A) (A)
                 (A) (A) (A) (A) (A) (A) (A) (A) (A) (A) (A) (A)
                 (A) (A) (A) (A) (A) (A) (A) (A) (A)
 The electronic state is 1-A.
 Alpha  occ. eigenvalues --  -19.27292 -19.26698 -19.26555 -19.26312 -19.25301
 Alpha  occ. eigenvalues --  -19.25133 -19.24623 -19.24614 -19.24358 -19.23875
 Alpha  occ. eigenvalues --  -14.58269 -10.36591 -10.36097 -10.35917 -10.35806
 Alpha  occ. eigenvalues --  -10.35229 -10.34589 -10.34498 -10.33788 -10.33610
 Alpha  occ. eigenvalues --  -10.33055 -10.33050 -10.32864 -10.32331 -10.31070
 Alpha  occ. eigenvalues --   -1.16697  -1.14370  -1.13918  -1.13551  -1.13165
 Alpha  occ. eigenvalues --   -1.12381  -1.11996  -1.11136  -1.10388  -1.09859
 Alpha  occ. eigenvalues --   -1.09694  -0.88572  -0.87754  -0.87206  -0.86960
 Alpha  occ. eigenvalues --   -0.86516  -0.85848  -0.82390  -0.78226  -0.77507
 Alpha  occ. eigenvalues --   -0.76861  -0.73359  -0.71144  -0.70157  -0.69431
 Alpha  occ. eigenvalues --   -0.68733  -0.65318  -0.64579  -0.64263  -0.63994
 Alpha  occ. eigenvalues --   -0.63364  -0.62764  -0.61176  -0.60603  -0.60067
 Alpha  occ. eigenvalues --   -0.59331  -0.59065  -0.58952  -0.58224  -0.57615
 Alpha  occ. eigenvalues --   -0.56814  -0.56787  -0.55892  -0.55662  -0.55106
 Alpha  occ. eigenvalues --   -0.54211  -0.53495  -0.53346  -0.52720  -0.52654
 Alpha  occ. eigenvalues --   -0.52471  -0.52078  -0.51788  -0.51326  -0.50769
 Alpha  occ. eigenvalues --   -0.50329  -0.49770  -0.49686  -0.49231  -0.46680
 Alpha  occ. eigenvalues --   -0.45620  -0.45362  -0.45241  -0.44518  -0.44150
 Alpha  occ. eigenvalues --   -0.43580  -0.43376  -0.42603  -0.41633  -0.39681
 Alpha  occ. eigenvalues --   -0.38876  -0.38513  -0.38124  -0.37672  -0.37266
 Alpha  occ. eigenvalues --   -0.37156  -0.36982  -0.36582  -0.35913
 Alpha virt. eigenvalues --   -0.11659  -0.10302  -0.09350  -0.08736  -0.08200
 Alpha virt. eigenvalues --   -0.07939  -0.07603  -0.07378  -0.07131  -0.07067
 Alpha virt. eigenvalues --   -0.06496  -0.06205  -0.05950  -0.05555  -0.05042
 Alpha virt. eigenvalues --   -0.04681  -0.04359  -0.04046  -0.03677  -0.03307
 Alpha virt. eigenvalues --   -0.02961  -0.02577  -0.02237  -0.02187  -0.02017
 Alpha virt. eigenvalues --   -0.01682  -0.01153  -0.00996  -0.00824  -0.00115
 Alpha virt. eigenvalues --   -0.00039   0.00283   0.00515   0.00735   0.01288
 Alpha virt. eigenvalues --    0.01756   0.02009   0.02522   0.02683   0.02930
 Alpha virt. eigenvalues --    0.03345   0.03502   0.03893   0.04005   0.04427
 Alpha virt. eigenvalues --    0.04611   0.04781   0.05202   0.05429   0.05593
 Alpha virt. eigenvalues --    0.05996   0.06064   0.06186   0.06292   0.06733
 Alpha virt. eigenvalues --    0.06822   0.07536   0.07658   0.07849   0.08130
 Alpha virt. eigenvalues --    0.08398   0.08732   0.08812   0.09128   0.09337
 Alpha virt. eigenvalues --    0.09693   0.09838   0.10029   0.10448   0.11039
 Alpha virt. eigenvalues --    0.11301   0.11391   0.11865   0.12206   0.12319
 Alpha virt. eigenvalues --    0.12411   0.12609   0.12758   0.12948   0.13590
 Alpha virt. eigenvalues --    0.13699   0.13859   0.14144   0.14500   0.14774
 Alpha virt. eigenvalues --    0.14957   0.15213   0.15432   0.15603   0.15927
 Alpha virt. eigenvalues --    0.16045   0.16092   0.16702   0.16828   0.17230
 Alpha virt. eigenvalues --    0.17421   0.17851   0.18109   0.18220   0.18416
 Alpha virt. eigenvalues --    0.18790   0.19119   0.19348   0.19390   0.19726
 Alpha virt. eigenvalues --    0.19834   0.20114   0.20317   0.20555   0.20932
 Alpha virt. eigenvalues --    0.21422   0.21719   0.21764   0.21834   0.22138
 Alpha virt. eigenvalues --    0.22213   0.22325   0.23119   0.23763   0.24039
 Alpha virt. eigenvalues --    0.24152   0.24282   0.24536   0.24747   0.25226
 Alpha virt. eigenvalues --    0.25441   0.26096   0.26323   0.26827   0.27037
 Alpha virt. eigenvalues --    0.27410   0.27505   0.28043   0.28140   0.28704
 Alpha virt. eigenvalues --    0.28726   0.29307   0.29886   0.30353   0.30545
 Alpha virt. eigenvalues --    0.31483   0.31980   0.32089   0.32710   0.32840
 Alpha virt. eigenvalues --    0.33338   0.33751   0.34381   0.34733   0.34903
 Alpha virt. eigenvalues --    0.35349   0.36348   0.37422   0.38174   0.38523
 Alpha virt. eigenvalues --    0.39290   0.42209   0.44506   0.46000   0.50518
 Alpha virt. eigenvalues --    0.51714   0.52707   0.53702   0.54912   0.55421
 Alpha virt. eigenvalues --    0.56641   0.57213   0.57407   0.58383   0.58923
 Alpha virt. eigenvalues --    0.59556   0.60255   0.60655   0.60889   0.62729
 Alpha virt. eigenvalues --    0.63429   0.64124   0.64294   0.64925   0.65572
 Alpha virt. eigenvalues --    0.67083   0.67564   0.68210   0.68810   0.69106
 Alpha virt. eigenvalues --    0.70220   0.71140   0.71197   0.71721   0.72610
 Alpha virt. eigenvalues --    0.73474   0.74964   0.75571   0.76871   0.77517
 Alpha virt. eigenvalues --    0.79317   0.79652   0.80011   0.80305   0.81927
 Alpha virt. eigenvalues --    0.82877   0.83513   0.84064   0.84399   0.84635
 Alpha virt. eigenvalues --    0.85760   0.86187   0.87512   0.87585   0.87848
 Alpha virt. eigenvalues --    0.88948   0.89879   0.90697   0.90979   0.91834
 Alpha virt. eigenvalues --    0.92172   0.93456   0.93800   0.93924   0.93982
 Alpha virt. eigenvalues --    0.94646   0.94864   0.95144   0.96275   0.96380
 Alpha virt. eigenvalues --    0.96582   0.97467   0.97638   0.98363   0.98704
 Alpha virt. eigenvalues --    0.99548   0.99924   1.00488   1.00863   1.01183
 Alpha virt. eigenvalues --    1.02188   1.02385   1.03281   1.04480   1.04881
 Alpha virt. eigenvalues --    1.06462   1.07082   1.07567   1.08377   1.08913
 Alpha virt. eigenvalues --    1.10157   1.10384   1.11360   1.12609   1.13305
 Alpha virt. eigenvalues --    1.13887   1.14195   1.14908   1.15397   1.16355
 Alpha virt. eigenvalues --    1.16817   1.17905   1.18093   1.18202   1.19576
 Alpha virt. eigenvalues --    1.20107   1.20232   1.20978   1.21092   1.22073
 Alpha virt. eigenvalues --    1.22428   1.22570   1.23620   1.24088   1.25032
 Alpha virt. eigenvalues --    1.25133   1.25961   1.26264   1.27630   1.28827
 Alpha virt. eigenvalues --    1.29054   1.30977   1.31768   1.32375   1.33283
 Alpha virt. eigenvalues --    1.34738   1.36517   1.36674   1.38433   1.38989
 Alpha virt. eigenvalues --    1.39162   1.40244   1.40460   1.41684   1.42986
 Alpha virt. eigenvalues --    1.45320   1.46909   1.47053   1.47626   1.48283
 Alpha virt. eigenvalues --    1.48479   1.48773   1.49334   1.49974   1.50485
 Alpha virt. eigenvalues --    1.51415   1.52024   1.52597   1.53225   1.53937
 Alpha virt. eigenvalues --    1.54276   1.55179   1.55340   1.56708   1.56811
 Alpha virt. eigenvalues --    1.58126   1.59313   1.60382   1.60959   1.61173
 Alpha virt. eigenvalues --    1.62005   1.62890   1.63421   1.64849   1.65030
 Alpha virt. eigenvalues --    1.66300   1.67314   1.68328   1.68756   1.69644
 Alpha virt. eigenvalues --    1.70028   1.72266   1.74747   1.75730   1.76004
 Alpha virt. eigenvalues --    1.76315   1.77084   1.77954   1.78706   1.79570
 Alpha virt. eigenvalues --    1.80134   1.80253   1.80768   1.81029   1.81326
 Alpha virt. eigenvalues --    1.81820   1.82505   1.83422   1.83535   1.84489
 Alpha virt. eigenvalues --    1.84526   1.84770   1.85108   1.85389   1.86379
 Alpha virt. eigenvalues --    1.87356   1.88521   1.89252   1.89415   1.89869
 Alpha virt. eigenvalues --    1.90926   1.91776   1.92039   1.92393   1.92728
 Alpha virt. eigenvalues --    1.93223   1.93659   1.94246   1.94737   1.95028
 Alpha virt. eigenvalues --    1.95714   1.96335   1.97153   1.97418   1.98081
 Alpha virt. eigenvalues --    1.98691   1.99094   1.99393   1.99655   2.00415
 Alpha virt. eigenvalues --    2.01024   2.01238   2.01778   2.02806   2.02909
 Alpha virt. eigenvalues --    2.04586   2.05635   2.06697   2.07257   2.09566
 Alpha virt. eigenvalues --    2.09828   2.10906   2.11863   2.12840   2.13403
 Alpha virt. eigenvalues --    2.15488   2.17247   2.18200   2.18337   2.20068
 Alpha virt. eigenvalues --    2.20371   2.21220   2.24850   2.25112   2.26203
 Alpha virt. eigenvalues --    2.26323   2.26796   2.26908   2.28002   2.29617
 Alpha virt. eigenvalues --    2.29938   2.31085   2.32654   2.33097   2.34105
 Alpha virt. eigenvalues --    2.34376   2.36216   2.36675   2.38215   2.38746
 Alpha virt. eigenvalues --    2.39170   2.40440   2.40493   2.42250   2.43010
 Alpha virt. eigenvalues --    2.43811   2.44424   2.44749   2.45723   2.46466
 Alpha virt. eigenvalues --    2.46576   2.47026   2.49098   2.49733   2.51363
 Alpha virt. eigenvalues --    2.51836   2.52591   2.52970   2.53744   2.54567
 Alpha virt. eigenvalues --    2.54659   2.54938   2.55320   2.55993   2.57132
 Alpha virt. eigenvalues --    2.57514   2.58719   2.59044   2.59336   2.59546
 Alpha virt. eigenvalues --    2.59845   2.60231   2.60757   2.62046   2.62367
 Alpha virt. eigenvalues --    2.63318   2.63684   2.64472   2.65003   2.65755
 Alpha virt. eigenvalues --    2.67210   2.67442   2.68165   2.68222   2.68266
 Alpha virt. eigenvalues --    2.68448   2.70446   2.71233   2.72303   2.72598
 Alpha virt. eigenvalues --    2.72694   2.73617   2.73911   2.74054   2.75222
 Alpha virt. eigenvalues --    2.76210   2.77691   2.78264   2.81259   2.83065
 Alpha virt. eigenvalues --    2.83597   2.83990   2.84332   2.86162   2.87170
 Alpha virt. eigenvalues --    2.87555   2.88170   2.89000   2.89287   2.89358
 Alpha virt. eigenvalues --    2.90697   2.91794   2.92850   2.93068   2.93613
 Alpha virt. eigenvalues --    2.94699   2.95574   2.95783   2.98439   2.99122
 Alpha virt. eigenvalues --    2.99676   3.05242   3.09541   3.16542   3.17555
 Alpha virt. eigenvalues --    3.18500   3.20777   3.21440   3.21892   3.21973
 Alpha virt. eigenvalues --    3.22688   3.23852   3.25567   3.27964   3.28448
 Alpha virt. eigenvalues --    3.29114   3.29900   3.31087   3.31706   3.32149
 Alpha virt. eigenvalues --    3.35728   3.37125   3.37437   3.38017   3.39582
 Alpha virt. eigenvalues --    3.39642   3.40102   3.41217   3.42035   3.42636
 Alpha virt. eigenvalues --    3.42777   3.43277   3.45582   3.46270   3.47257
 Alpha virt. eigenvalues --    3.48487   3.50406   3.51915   3.53389   3.66085
 Alpha virt. eigenvalues --    4.00885   4.13628   4.20382   4.20603   4.21381
 Alpha virt. eigenvalues --    4.22912   4.23350   4.25046   4.32731   4.35108
 Alpha virt. eigenvalues --    4.35791   4.36781   4.38796   4.43769   4.48619
 Alpha virt. eigenvalues --    4.49831   4.50504   4.52182   4.53392   4.57586
 Alpha virt. eigenvalues --    4.59362   4.61876   4.65359   4.66936   4.74484
 Alpha virt. eigenvalues --    4.75024
          Condensed to atoms (all electrons):
 Mulliken charges:
               1
     1  C   -0.162042
     2  H    0.138453
     3  H    0.144167
     4  C    0.226783
     5  H    0.142527
     6  C   -0.158730
     7  H    0.142381
     8  H    0.148539
     9  O   -0.575477
    10  H    0.396070
    11  O   -0.592519
    12  H    0.390023
    13  O   -0.574302
    14  H    0.368939
    15  N   -0.621296
    16  C   -0.243960
    17  H    0.186857
    18  H    0.175658
    19  H    0.240523
    20  C   -0.110319
    21  H    0.196881
    22  H    0.166616
    23  H    0.190496
    24  C   -0.182875
    25  H    0.181035
    26  H    0.225460
    27  H    0.181145
    28  C   -0.618070
    29  H    0.188058
    30  H    0.197641
    31  C    0.164273
    32  H    0.111530
    33  H    0.139438
    34  O   -0.633799
    35  H    0.492773
    36  C   -0.199837
    37  H    0.138013
[...]
    D4        3.12905  -0.00001   0.00059   0.00000  -0.00014   3.12891
    D5        1.00489   0.00015  -0.00171   0.00000   0.00031   1.00520
    D6       -1.05540   0.00044   0.00121   0.00000   0.00125  -1.05415
    D7       -1.06594  -0.00034   0.00072   0.00000  -0.00087  -1.06681
    D8        3.09309  -0.00017  -0.00158   0.00000  -0.00042   3.09267
    D9        1.03280   0.00011   0.00134   0.00000   0.00052   1.03332
   D10        1.25231   0.00038  -0.00090   0.00000   0.00040   1.25271
   D11       -0.87574  -0.00032   0.00006   0.00000  -0.00065  -0.87639
   D12       -2.94754  -0.00021   0.00009   0.00000  -0.00015  -2.94769
   D13        1.19017  -0.00032   0.00179   0.00000  -0.00377   1.18640
   D14       -0.92376  -0.00052   0.00115   0.00000  -0.00447  -0.92822
   D15       -3.02263  -0.00130   0.00068   0.00000  -0.00736  -3.02999
   D16       -0.92631   0.00033   0.00011   0.00000  -0.00241  -0.92872
   D17       -3.04024   0.00012  -0.00053   0.00000  -0.00310  -3.04334
   D18        1.14407  -0.00065  -0.00100   0.00000  -0.00600   1.13808
   D19       -2.97924   0.00034   0.00074   0.00000  -0.00289  -2.98213
   D20        1.19002   0.00013   0.00009   0.00000  -0.00359   1.18643
   D21       -0.90885  -0.00064  -0.00038   0.00000  -0.00649  -0.91533
   D22       -0.87444   0.00036   0.00037   0.00000   0.00081  -0.87363
   D23        1.21757   0.00015   0.00006   0.00000   0.00052   1.21809
   D24       -3.01116  -0.00004  -0.00083   0.00000   0.00019  -3.01097
   D25        0.77376   0.00079  -0.00361   0.00000   0.00085   0.77461
   D26       -1.59375   0.00117  -0.00229   0.00000   0.00494  -1.58880
   D27        2.88184  -0.00008  -0.00020   0.00000  -0.00078   2.88105
   D28        0.51433   0.00031   0.00112   0.00000   0.00331   0.51764
   D29       -1.33855  -0.00028  -0.00293   0.00000  -0.00233  -1.34087
   D30        2.57713   0.00011  -0.00161   0.00000   0.00177   2.57890
   D31       -1.70321  -0.00170  -0.00621   0.00000   0.03015  -1.67306
   D32        2.22252   0.00297  -0.01139   0.00000   0.05558   2.27810
   D33       -1.01414  -0.00016   0.00097   0.00000  -0.00068  -1.01481
   D34        1.06506  -0.00017   0.00095   0.00000  -0.00078   1.06428
   D35       -3.12180  -0.00020   0.00079   0.00000  -0.00188  -3.12367
   D36       -3.09518   0.00010   0.00038   0.00000  -0.00023  -3.09542
   D37       -1.01598   0.00009   0.00036   0.00000  -0.00034  -1.01632
   D38        1.08034   0.00006   0.00020   0.00000  -0.00143   1.07891
   D39        1.13679   0.00001   0.00016   0.00000   0.00099   1.13779
   D40       -3.06719   0.00001   0.00014   0.00000   0.00089  -3.06630
   D41       -0.97086  -0.00003  -0.00002   0.00000  -0.00021  -0.97107
   D42        0.92168   0.00022  -0.00053   0.00000  -0.00558   0.91610
   D43        3.00406   0.00045  -0.00206   0.00000  -0.01043   2.99363
   D44       -1.16288   0.00008  -0.00061   0.00000  -0.00573  -1.16861
   D45        3.00448   0.00000   0.00048   0.00000  -0.00476   2.99973
   D46       -1.19633   0.00023  -0.00105   0.00000  -0.00960  -1.20593
   D47        0.91992  -0.00014   0.00041   0.00000  -0.00491   0.91502
   D48       -1.22241  -0.00050  -0.00011   0.00000  -0.00456  -1.22698
   D49        0.85996  -0.00027  -0.00165   0.00000  -0.00941   0.85056
   D50        2.97621  -0.00064  -0.00019   0.00000  -0.00471   2.97150
   D51       -3.13856  -0.00011   0.00038   0.00000  -0.00001  -3.13857
   D52       -1.04289  -0.00008  -0.00049   0.00000  -0.00085  -1.04374
   D53        1.05617  -0.00007   0.00044   0.00000   0.00058   1.05676
   D54        1.05021  -0.00027  -0.00054   0.00000  -0.00044   1.04977
   D55       -3.13730  -0.00024  -0.00142   0.00000  -0.00128  -3.13858
   D56       -1.03824  -0.00022  -0.00049   0.00000   0.00015  -1.03809
   D57       -1.05033   0.00038   0.00051   0.00000  -0.00239  -1.05272
   D58        1.04534   0.00041  -0.00036   0.00000  -0.00322   1.04211
   D59       -3.13878   0.00042   0.00056   0.00000  -0.00179  -3.14058
   D60        1.16886   0.00040  -0.00453   0.00000  -0.00512   1.16374
   D61       -3.07570   0.00297   0.00610   0.00000   0.00374  -3.07196
   D62       -0.99360  -0.00311  -0.00332   0.00000  -0.01154  -1.00514
   D63       -2.97529   0.00102  -0.00458   0.00000  -0.00461  -2.97990
   D64       -0.93666   0.00358   0.00605   0.00000   0.00425  -0.93241
   D65        1.14544  -0.00249  -0.00337   0.00000  -0.01104   1.13440
   D66       -0.90168   0.00040  -0.00516   0.00000  -0.00484  -0.90652
   D67        1.13694   0.00297   0.00547   0.00000   0.00402   1.14097
   D68       -3.06414  -0.00310  -0.00396   0.00000  -0.01127  -3.07540
   D69       -0.26224   0.00010   0.00044   0.00000   0.00319  -0.25905
   D70       -2.34626  -0.00023  -0.00043   0.00000   0.00115  -2.34511
   D71        1.80843  -0.00006   0.00007   0.00000   0.00183   1.81026
   D72       -0.33437  -0.00012  -0.00002   0.00000  -0.00126  -0.33563
   D73       -2.08774  -0.00008   0.00010   0.00000  -0.00123  -2.08897
   D74        1.86030   0.00002  -0.00062   0.00000  -0.00199   1.85831
   D75        0.21127   0.00015  -0.00009   0.00000   0.00373   0.21500
   D76        2.28048   0.00008  -0.00015   0.00000   0.00341   2.28389
   D77       -1.86471   0.00009   0.00034   0.00000   0.00422  -1.86048
   D78        0.36200   0.00007   0.00009   0.00000  -0.00336   0.35864
   D79        2.35927  -0.00006   0.00027   0.00000  -0.00554   2.35372
   D80       -1.50297   0.00002   0.00027   0.00000  -0.00553  -1.50849
   D81        1.66480   0.00494  -0.03367   0.00000  -0.03785   1.62695
   D82       -2.61169   0.00224  -0.03220   0.00000  -0.03798  -2.64967
   D83       -0.47354  -0.00080  -0.04731   0.00000  -0.04019  -0.51373
   D84       -0.69215   0.00131  -0.00526   0.00000  -0.00286  -0.69501
   D85        1.40490   0.00215   0.00270   0.00000   0.00124   1.40614
   D86       -2.74361   0.00176  -0.01433   0.00000  -0.00390  -2.74751
   D87       -2.79638  -0.00110  -0.01008   0.00000  -0.00918  -2.80556
   D88       -0.69933  -0.00026  -0.00212   0.00000  -0.00509  -0.70442
   D89        1.43535  -0.00065  -0.01915   0.00000  -0.01023   1.42512
   D90        1.38326  -0.00056  -0.00858   0.00000  -0.01357   1.36969
   D91       -2.80287   0.00028  -0.00062   0.00000  -0.00948  -2.81235
   D92       -0.66819  -0.00011  -0.01765   0.00000  -0.01462  -0.68281
   D93       -2.33745  -0.00074  -0.02838   0.00000  -0.00966  -2.34710
   D94        1.33336  -0.00063  -0.03088   0.00000   0.05152   1.38489
   D95       -2.71444  -0.00404   0.04156   0.00000  -0.01500  -2.72944
   D96        1.52714  -0.00419   0.01908   0.00000  -0.02146   1.50569
   D97       -0.56002  -0.00460   0.01910   0.00000  -0.01665  -0.57667
   D98        1.02266  -0.00003   0.00013   0.00000  -0.00012   1.02254
   D99       -1.10724   0.00005   0.00007   0.00000   0.00006  -1.10718
   D100       3.12009  -0.00004  -0.00015   0.00000  -0.00016   3.11993
   D101       3.12149  -0.00003   0.00010   0.00000  -0.00019   3.12130
   D102       0.99160   0.00004   0.00004   0.00000  -0.00002   0.99158
   D103      -1.06426  -0.00004  -0.00018   0.00000  -0.00024  -1.06450
   D104      -1.07420  -0.00002   0.00009   0.00000  -0.00018  -1.07438
   D105       3.07909   0.00005   0.00003   0.00000   0.00000   3.07908
   D106       1.02323  -0.00003  -0.00019   0.00000  -0.00022   1.02301
   D107       1.22825   0.00003   0.00002   0.00000   0.00062   1.22887
   D108      -0.89891  -0.00001  -0.00007   0.00000   0.00048  -0.89843
   D109      -2.97092   0.00000   0.00001   0.00000   0.00060  -2.97032
   D110       1.20534   0.00004  -0.00009   0.00000  -0.00014   1.20520
   D111      -0.90124  -0.00001   0.00016   0.00000   0.00019  -0.90104
   D112      -3.00978  -0.00002   0.00001   0.00000  -0.00029  -3.01008
   D113      -0.91577   0.00006  -0.00014   0.00000  -0.00009  -0.91587
   D114      -3.02234   0.00001   0.00010   0.00000   0.00024  -3.02211
   D115       1.15229   0.00000  -0.00005   0.00000  -0.00025   1.15204
   D116      -2.96605   0.00003  -0.00027   0.00000  -0.00027  -2.96632
   D117       1.21057  -0.00002  -0.00003   0.00000   0.00006   1.21063
   D118      -0.89798  -0.00003  -0.00018   0.00000  -0.00042  -0.89841
   D119      -0.85207   0.00000  -0.00002   0.00000   0.00039  -0.85168
   D120       1.23729   0.00002  -0.00009   0.00000   0.00051   1.23780
   D121      -2.99409   0.00002   0.00030   0.00000   0.00070  -2.99340
   D122      -1.68555   0.00006  -0.00078   0.00000  -0.00032  -1.68587
   D123      -2.91504   0.00015  -0.00016   0.00000   0.00111  -2.91393
   D124       0.75215   0.00001  -0.00005   0.00000   0.00118   0.75333
   D125       0.42103   0.00002  -0.00058   0.00000  -0.00048   0.42054
   D126      -0.80846   0.00011   0.00004   0.00000   0.00095  -0.80751
   D127       2.85873  -0.00002   0.00016   0.00000   0.00102   2.85975
   D128       2.48547   0.00001  -0.00054   0.00000  -0.00046   2.48501
   D129       1.25598   0.00010   0.00008   0.00000   0.00097   1.25695
   D130      -1.36001  -0.00003   0.00020   0.00000   0.00104  -1.35897
   D131      -3.05738  -0.00186  -0.00791   0.00000  -0.00806  -3.06544
   D132       1.10332   0.00035  -0.00277   0.00000  -0.00175   1.10157
   D133      -0.95356  -0.00274  -0.00691   0.00000  -0.00968  -0.96324
   D134      -1.01902   0.00126   0.00051   0.00000   0.00409  -1.01494
   D135      -3.14151   0.00346   0.00565   0.00000   0.01040  -3.13111
   D136       1.08479   0.00037   0.00151   0.00000   0.00246   1.08726
   D137       1.13783   0.00034   0.00800   0.00000  -0.00301   1.13482
   D138      -0.98465   0.00255   0.01314   0.00000   0.00330  -0.98135
   D139      -3.04154  -0.00055   0.00900   0.00000  -0.00463  -3.04617
   D140       0.82231   0.00142  -0.00531   0.00000   0.12465   0.94696
   D141      -2.87153   0.00331   0.00269   0.00000   0.08648  -2.78505
   D142      -1.20892  -0.00207  -0.00856   0.00000   0.11475  -1.09417
   D143       1.38043  -0.00018  -0.00056   0.00000   0.07658   1.45701
   D144       2.93963  -0.00048  -0.02285   0.00000   0.11517   3.05480
   D145      -0.75421   0.00141  -0.01486   0.00000   0.07701  -0.67720
   D146       1.04218  -0.00091  -0.00245   0.00000  -0.01326   1.02892
   D147      -1.02973  -0.00097   0.00360   0.00000  -0.00854  -1.03827
   D148       3.09785  -0.00091   0.00440   0.00000  -0.00935   3.08850
   D149      -1.09418   0.00061  -0.00186   0.00000  -0.00966  -1.10383
   D150       3.11710   0.00055   0.00418   0.00000  -0.00495   3.11215
   D151       0.96149   0.00060   0.00499   0.00000  -0.00575   0.95574
   D152       3.13290  -0.00077  -0.00468   0.00000  -0.01020   3.12269
   D153       1.06099  -0.00083   0.00137   0.00000  -0.00549   1.05550
   D154      -1.09462  -0.00077   0.00217   0.00000  -0.00630  -1.10092
   D155      -1.62043  -0.00217  -0.01246   0.00000   0.00436  -1.61606
   D156       0.46957   0.00002  -0.00017   0.00000   0.00967   0.47924
   D157       2.49271   0.00435   0.01056   0.00000   0.01522   2.50792
   D158       0.97035   0.00001  -0.00214   0.00000   0.00304   0.97339
   D159       3.05778   0.00044   0.00193   0.00000   0.01021   3.06798
   D160      -1.16262  -0.00020  -0.00012   0.00000   0.00389  -1.15873
         Item               Value     Threshold  Converged?
 Maximum Force            0.349073     0.000450     NO 
 RMS     Force            0.042752     0.000300     NO 
 Maximum Displacement     0.068613     0.001800     NO 
 RMS     Displacement     0.012792     0.001200     NO 
 Predicted change in Energy=-2.780009D-02
 GradGradGradGradGradGradGradGradGradGradGradGradGradGradGradGradGradGrad

 Leave Link  103 at Thu Apr 02 16:29:27 2026, MaxMem=  8589934592 cpu:               2.0 elap:               2.1
 (Enter C:\G16W\l202.exe)
 Stoichiometry    C14H38NO10(1+)
 Framework group  C1[X(C14H38NO10)]
 Deg. of freedom   183
 Full point group                 C1      NOp   1
 RotChk:  IX=0 Diff= 2.80D-03
 Largest Abelian subgroup         C1      NOp   1
 Largest concise Abelian subgroup C1      NOp   1
                         Standard orientation:                         
 ---------------------------------------------------------------------
 Center     Atomic      Atomic             Coordinates (Angstroms)
 Number     Number       Type             X           Y           Z
 ---------------------------------------------------------------------
      1          6           0       -5.641401    2.292729    0.538155
      2          1           0       -5.871800    1.265175    0.850478
      3          1           0       -5.709293    2.960005    1.407690
      4          6           0       -4.239281    2.356974   -0.045983
      5          1           0       -4.185111    1.673433   -0.907283
      6          6           0       -3.162049    1.990714    0.961350
      7          1           0       -3.220419    0.931270    1.228057
      8          1           0       -3.265813    2.597122    1.869335
      9          8           0       -1.858677    2.215219    0.391561
     10          1           0       -1.887349    3.076136   -0.058143
     11          8           0       -3.925159    3.684403   -0.471370
     12          1           0       -4.655058    3.999648   -1.024809
     13          8           0       -6.512998    2.725651   -0.509354
     14          1           0       -7.400126    2.877106   -0.161329
     15          7           0        1.790954   -2.316808    0.582055
     16          6           0        2.474911   -1.625243    1.729295
     17          1           0        1.726100   -1.109170    2.329126
     18          1           0        2.972727   -2.380792    2.338434
     19          1           0        3.199948   -0.922435    1.318058
     20          6           0        0.758534   -3.283281    1.102337
     21          1           0        0.096173   -2.765299    1.792992
     22          1           0        0.177192   -3.656312    0.261273
     23          1           0        1.277701   -4.087723    1.623940
     24          6           0        2.817051   -3.084627   -0.211260
     25          1           0        2.311218   -3.578687   -1.040909
     26          1           0        3.558361   -2.375161   -0.578596
     27          1           0        3.278426   -3.826283    0.441478
     28          6           0        1.168886   -1.295027   -0.359225
     29          1           0        1.998227   -0.752125   -0.811767
     30          1           0        0.627849   -1.854998   -1.129127
     31          6           0        0.166416   -0.366349    0.313034
     32          1           0       -0.433043   -0.942434    1.023614
     33          1           0        0.638402    0.458792    0.857036
     34          8           0       -0.666720    0.115371   -0.723383
     35          1           0       -1.062333    0.972007   -0.434618
     36          6           0        7.855822    1.375864   -0.078516
     37          1           0        8.351042    0.691634    0.624855
     38          1           0        8.188221    1.146878   -1.099901
     39          6           0        6.344956    1.222088    0.015744
     40          1           0        6.033025    1.434815    1.049888
     41          6           0        5.853127   -0.160572   -0.390653
     42          1           0        6.157476   -0.913994    0.341176
     43          1           0        6.261978   -0.430637   -1.373183
     44          8           0        4.419161   -0.172109   -0.444123
     45          1           0        4.176698    0.659374   -0.886476
     46          8           0        5.689567    2.126938   -0.873505
     47          1           0        6.075928    3.005645   -0.739681
     48          8           0        8.118873    2.738965    0.252535
     49          1           0        9.040895    2.955946    0.066968
     50          6           0       -2.899247   -2.828014   -1.184069
     51          1           0       -2.990990   -3.718542   -0.553420
     52          1           0       -3.200027   -3.103063   -2.202803
     53          6           0       -3.856837   -1.738328   -0.668195
     54          1           0       -3.825185   -0.871484   -1.344430
     55          6           0       -3.554681   -1.241620    0.737504
     56          1           0       -2.549351   -0.834998    0.777866
     57          1           0       -3.611026   -2.090293    1.437901
     58          8           0       -4.430764   -0.192608    1.121436
     59          1           0       -5.334395   -0.528035    1.022803
     60          8           0       -5.183591   -2.275667   -0.616764
     61          1           0       -5.652232   -2.090510   -1.439493
     62          8           0       -1.512961   -2.445510   -1.162453
     63          1           0       -1.441823   -1.511417   -1.425133
 ---------------------------------------------------------------------
 Rotational constants (GHZ):           0.2567556           0.0659233           0.0552207
 Leave Link  202 at Thu Apr 02 16:29:27 2026, MaxMem=  8589934592 cpu:               0.0 elap:               0.2
 (Enter C:\G16W\l301.exe)
 Standard basis: 6-31+G(d,p) (6D, 7F)
 Ernie: Thresh=  0.10000D-02 Tol=  0.10000D-05 Strict=F.
 There are   665 symmetry adapted cartesian basis functions of A   symmetry.
 There are   665 symmetry adapted basis functions of A   symmetry.
   665 basis functions,  1066 primitive gaussians,   665 cartesian basis functions
   104 alpha electrons      104 beta electrons
       nuclear repulsion energy      2509.8714687974 Hartrees.
 IExCor=  402 DFT=T Ex+Corr=B3LYP ExCW=0 ScaHFX=  0.200000
 ScaDFX=  0.800000  0.720000  1.000000  0.810000 ScalE2=  1.000000  1.000000
 IRadAn=      5 IRanWt=     -1 IRanGd=            0 ICorTp=0 IEmpDi=141
 NAtoms=   63 NActive=   63 NUniq=   63 SFac= 1.00D+00 NAtFMM=   60 NAOKFM=T Big=T
 Integral buffers will be    131072 words long.
 Raffenetti 2 integral format.
 Two-electron integral symmetry is turned on.
 R6Disp:  Grimme-D3(BJ) Dispersion energy=       -0.1020925995 Hartrees.
 Nuclear repulsion after empirical dispersion term =     2509.7693761978 Hartrees.
 Leave Link  301 at Thu Apr 02 16:29:27 2026, MaxMem=  8589934592 cpu:               0.0 elap:               0.2
 (Enter C:\G16W\l302.exe)
 NPDir=0 NMtPBC=     1 NCelOv=     1 NCel=       1 NClECP=     1 NCelD=      1
         NCelK=      1 NCelE2=     1 NClLst=     1 CellRange=     0.0.
 One-electron integrals computed using PRISM.
 One-electron integral symmetry used in STVInt
 NBasis=   665 RedAO= T EigKep=  1.08D-05  NBF=   665
 NBsUse=   665 1.00D-06 EigRej= -1.00D+00 NBFU=   665
 Precomputing XC quadrature grid using
 IXCGrd= 4 IRadAn=           5 IRanWt=          -1 IRanGd=           0 AccXCQ= 0.00D+00.
 Generated NRdTot=       0 NPtTot=           0 NUsed=           0 NTot=          32
 NSgBfM=   646   646   646   646   646 MxSgAt=    63 MxSgA2=    63.
 Leave Link  302 at Thu Apr 02 16:29:30 2026, MaxMem=  8589934592 cpu:               3.0 elap:               2.7
 (Enter C:\G16W\l303.exe)
 DipDrv:  MaxL=1.
 Leave Link  303 at Thu Apr 02 16:29:30 2026, MaxMem=  8589934592 cpu:               0.0 elap:               0.3
 (Enter C:\G16W\l401.exe)
 Lowest energy guess from the checkpoint file:  "1-3.chk"
 B after Tr=     0.000000    0.000000    0.000000
         Rot=    0.999836    0.015187    0.000214   -0.009904 Ang=   2.08 deg.
 Guess basis will be translated and rotated to current coordinates.
 B after Tr=     0.000000    0.000000    0.000000
         Rot=    1.000000   -0.000669   -0.000063   -0.000179 Ang=  -0.08 deg.
 Guess basis will be translated and rotated to current coordinates.
 CkInt1:  FT= 4.00D-01
 Max alpha theta=  8.704 degrees.
 JPrj=2 DoOrth=T DoCkMO=T.
 Leave Link  401 at Thu Apr 02 16:29:37 2026, MaxMem=  8589934592 cpu:               7.0 elap:               6.5
