 Entering Link 1 = C:\G16W\l1.exe PID=     72280.
  
 Copyright (c) 1988-2019, Gaussian, Inc.  All Rights Reserved.
  
 This is part of the Gaussian(R) 16 program.  It is based on
 the Gaussian(R) 09 system (copyright 2009, Gaussian, Inc.),
 the Gaussian(R) 03 system (copyright 2003, Gaussian, Inc.),
 the Gaussian(R) 98 system (copyright 1998, Gaussian, Inc.),
 the Gaussian(R) 94 system (copyright 1995, Gaussian, Inc.),
 the Gaussian 92(TM) system (copyright 1992, Gaussian, Inc.),
 the Gaussian 90(TM) system (copyright 1990, Gaussian, Inc.),
 the Gaussian 88(TM) system (copyright 1988, Gaussian, Inc.),
 the Gaussian 86(TM) system (copyright 1986, Carnegie Mellon
 University), and the Gaussian 82(TM) system (copyright 1983,
 Carnegie Mellon University). Gaussian is a federally registered
 trademark of Gaussian, Inc.
  
 This software contains proprietary and confidential information,
 including trade secrets, belonging to Gaussian, Inc.
  
 This software is provided under written license and may be
 used, copied, transmitted, or stored only in accord with that
 written license.
  
 The following legend is applicable only to US Government
 contracts under FAR:
  
                    RESTRICTED RIGHTS LEGEND
  
 Use, reproduction and disclosure by the US Government is
 subject to restrictions as set forth in subparagraphs (a)
 and (c) of the Commercial Computer Software - Restricted
 Rights clause in FAR 52.227-19.
  
 Gaussian, Inc.
 340 Quinnipiac St., Bldg. 40, Wallingford CT 06492
  
  
 ---------------------------------------------------------------
 Warning -- This program may not be used in any manner that
 competes with the business of Gaussian, Inc. or will provide
 assistance to any competitor of Gaussian, Inc.  The licensee
 of this program is prohibited from giving any competitor of
 Gaussian, Inc. access to this program.  By using this program,
 the user acknowledges that Gaussian, Inc. is engaged in the
 business of creating and licensing software in the field of
 computational chemistry and represents and warrants to the
 licensee that it is not a competitor of Gaussian, Inc. and that
 it will not use this program in any manner prohibited above.
 ---------------------------------------------------------------
  

 Cite this work as:
 Gaussian 16, Revision C.01,
 M. J. Frisch, G. W. Trucks, H. B. Schlegel, G. E. Scuseria, 
 M. A. Robb, J. R. Cheeseman, G. Scalmani, V. Barone, 
 G. A. Petersson, H. Nakatsuji, X. Li, M. Caricato, A. V. Marenich, 
 J. Bloino, B. G. Janesko, R. Gomperts, B. Mennucci, H. P. Hratchian, 
 J. V. Ortiz, A. F. Izmaylov, J. L. Sonnenberg, D. Williams-Young, 
 F. Ding, F. Lipparini, F. Egidi, J. Goings, B. Peng, A. Petrone, 
 T. Henderson, D. Ranasinghe, V. G. Zakrzewski, J. Gao, N. Rega, 
 G. Zheng, W. Liang, M. Hada, M. Ehara, K. Toyota, R. Fukuda, 
 J. Hasegawa, M. Ishida, T. Nakajima, Y. Honda, O. Kitao, H. Nakai, 
 T. Vreven, K. Throssell, J. A. Montgomery, Jr., J. E. Peralta, 
 F. Ogliaro, M. J. Bearpark, J. J. Heyd, E. N. Brothers, K. N. Kudin, 
 V. N. Staroverov, T. A. Keith, R. Kobayashi, J. Normand, 
 K. Raghavachari, A. P. Rendell, J. C. Burant, S. S. Iyengar, 
 J. Tomasi, M. Cossi, J. M. Millam, M. Klene, C. Adamo, R. Cammi, 
 J. W. Ochterski, R. L. Martin, K. Morokuma, O. Farkas, 
 J. B. Foresman, and D. J. Fox, Gaussian, Inc., Wallingford CT, 2019.
 
 ******************************************
 Gaussian 16:  EM64W-G16RevC.01 30-May-2019
                23-Mar-2026 
 ******************************************
 %chk=C:\Users\Make\Desktop\Beksultan\Aya DES\Choline+.chk
 ----------------------------------------------------------------------
 #p opt freq b3lyp/6-31+g empiricaldispersion=gd3bj pop=(hirshfeld,full
 ) geom=connectivity
 ----------------------------------------------------------------------
 1/18=20,19=15,26=3,38=1,57=2/1,3;
 2/9=110,12=2,17=6,18=5,40=1/2;
 3/5=1,6=6,7=10,11=2,25=1,30=1,71=1,74=-5,124=41/1,2,3;
 4//1;
 5/5=2,38=5/2;
 6/7=3,28=1,79=1/1;
 7//1,2,3,16;
 1/18=20,19=15,26=3/3(2);
 2/9=110/2;
 99//99;
 2/9=110/2;
 3/5=1,6=6,7=10,11=2,25=1,30=1,71=1,74=-5,124=41/1,2,3;
 4/5=5,16=3,69=1/1;
 5/5=2,38=5/2;
 7//1,2,3,16;
 1/18=20,19=15,26=3/3(-5);
 2/9=110/2;
 6/7=3,19=2,28=1,79=1/1;
 99/9=1/99;
 Leave Link    1 at Mon Mar 23 14:55:38 2026, MaxMem=           0 cpu:               0.0 elap:               0.1
 (Enter C:\G16W\l101.exe)
 -------------------
 Title Card Required
 -------------------
 Symbolic Z-matrix:
 Charge =  1 Multiplicity = 1
 N                     0.8799    0.02401   0. 
 C                     1.1347   -0.81084   1.23005 
 H                     0.46684  -1.67189   1.23378 
 H                     2.17178  -1.15225   1.21278 
 H                     0.9583   -0.19848   2.11714 
 C                     1.13429  -0.81147  -1.2297 
 H                     0.46778  -1.67358  -1.23173 
 H                     0.95565  -0.20014  -2.11706 
 H                     2.17192  -1.15123  -1.21362 
 C                     1.82146   1.20409  -0.00044 
 H                     1.6423    1.80533  -0.89404 
 H                     1.64208   1.80617   0.89255 
 H                     2.85      0.83692  -0.00014 
 C                    -0.54208   0.56875   0.00006 
 H                    -0.63647   1.19614   0.89097 
 H                    -0.63652   1.19618  -0.89082 
 C                    -1.68185  -0.45339   0.00002 
 H                    -1.64784  -1.08979  -0.89479 
 H                    -1.64791  -1.08986   0.89477 
 O                    -2.8121    0.39638   0.00003 
 H                    -3.61957  -0.13548   0.00001 
 
 ITRead=  0  0  0  0  0  0  0  0  0  0  0  0  0  0  0  0  0  0  0  0
 ITRead=  0
 MicOpt= -1 -1 -1 -1 -1 -1 -1 -1 -1 -1 -1 -1 -1 -1 -1 -1 -1 -1 -1 -1
 MicOpt= -1
 NAtoms=     21 NQM=       21 NQMF=       0 NMMI=      0 NMMIF=      0
                NMic=       0 NMicF=      0.
                    Isotopes and Nuclear Properties:
 (Nuclear quadrupole moments (NQMom) in fm**2, nuclear magnetic moments (NMagM)
  in nuclear magnetons)

  Atom         1           2           3           4           5           6           7           8           9          10
 IAtWgt=          14          12           1           1           1          12           1           1           1          12
 AtmWgt=  14.0030740  12.0000000   1.0078250   1.0078250   1.0078250  12.0000000   1.0078250   1.0078250   1.0078250  12.0000000
 NucSpn=           2           0           1           1           1           0           1           1           1           0
 AtZEff=   0.0000000   0.0000000   0.0000000   0.0000000   0.0000000   0.0000000   0.0000000   0.0000000   0.0000000   0.0000000
 NQMom=    2.0440000   0.0000000   0.0000000   0.0000000   0.0000000   0.0000000   0.0000000   0.0000000   0.0000000   0.0000000
 NMagM=    0.4037610   0.0000000   2.7928460   2.7928460   2.7928460   0.0000000   2.7928460   2.7928460   2.7928460   0.0000000
 AtZNuc=   7.0000000   6.0000000   1.0000000   1.0000000   1.0000000   6.0000000   1.0000000   1.0000000   1.0000000   6.0000000

  Atom        11          12          13          14          15          16          17          18          19          20
 IAtWgt=           1           1           1          12           1           1          12           1           1          16
 AtmWgt=   1.0078250   1.0078250   1.0078250  12.0000000   1.0078250   1.0078250  12.0000000   1.0078250   1.0078250  15.9949146
 NucSpn=           1           1           1           0           1           1           0           1           1           0
 AtZEff=   0.0000000   0.0000000   0.0000000   0.0000000   0.0000000   0.0000000   0.0000000   0.0000000   0.0000000   0.0000000
 NQMom=    0.0000000   0.0000000   0.0000000   0.0000000   0.0000000   0.0000000   0.0000000   0.0000000   0.0000000   0.0000000
 NMagM=    2.7928460   2.7928460   2.7928460   0.0000000   2.7928460   2.7928460   0.0000000   2.7928460   2.7928460   0.0000000
 AtZNuc=   1.0000000   1.0000000   1.0000000   6.0000000   1.0000000   1.0000000   6.0000000   1.0000000   1.0000000   8.0000000

  Atom        21
 IAtWgt=           1
 AtmWgt=   1.0078250
 NucSpn=           1
 AtZEff=   0.0000000
 NQMom=    0.0000000
 NMagM=    2.7928460
 AtZNuc=   1.0000000
 Leave Link  101 at Mon Mar 23 14:55:38 2026, MaxMem=   104857600 cpu:               0.0 elap:               0.1
 (Enter C:\G16W\l103.exe)

 GradGradGradGradGradGradGradGradGradGradGradGradGradGradGradGradGradGrad
 Berny optimization.
 Initialization pass.
                           ----------------------------
                           !    Initial Parameters    !
                           ! (Angstroms and Degrees)  !
 --------------------------                            --------------------------
 ! Name  Definition              Value          Derivative Info.                !
 --------------------------------------------------------------------------------
 ! R1    R(1,2)                  1.5083         estimate D2E/DX2                !
 ! R2    R(1,6)                  1.5083         estimate D2E/DX2                !
 ! R3    R(1,10)                 1.5097         estimate D2E/DX2                !
 ! R4    R(1,14)                 1.5227         estimate D2E/DX2                !
 ! R5    R(2,3)                  1.0897         estimate D2E/DX2                !
 ! R6    R(2,4)                  1.092          estimate D2E/DX2                !
 ! R7    R(2,5)                  1.0923         estimate D2E/DX2                !
 ! R8    R(6,7)                  1.0897         estimate D2E/DX2                !
 ! R9    R(6,8)                  1.0923         estimate D2E/DX2                !
 ! R10   R(6,9)                  1.092          estimate D2E/DX2                !
 ! R11   R(10,11)                1.0918         estimate D2E/DX2                !
 ! R12   R(10,12)                1.0918         estimate D2E/DX2                !
 ! R13   R(10,13)                1.0921         estimate D2E/DX2                !
 ! R14   R(14,15)                1.0937         estimate D2E/DX2                !
 ! R15   R(14,16)                1.0937         estimate D2E/DX2                !
 ! R16   R(14,17)                1.531          estimate D2E/DX2                !
 ! R17   R(17,18)                1.0986         estimate D2E/DX2                !
 ! R18   R(17,19)                1.0986         estimate D2E/DX2                !
 ! R19   R(17,20)                1.4141         estimate D2E/DX2                !
 ! R20   R(20,21)                0.9669         estimate D2E/DX2                !
 ! A1    A(2,1,6)              109.2566         estimate D2E/DX2                !
 ! A2    A(2,1,10)             109.1195         estimate D2E/DX2                !
 ! A3    A(2,1,14)             110.8387         estimate D2E/DX2                !
 ! A4    A(6,1,10)             109.121          estimate D2E/DX2                !
 ! A5    A(6,1,14)             110.8361         estimate D2E/DX2                !
 ! A6    A(10,1,14)            107.6243         estimate D2E/DX2                !
 ! A7    A(1,2,3)              109.6709         estimate D2E/DX2                !
 ! A8    A(1,2,4)              108.6998         estimate D2E/DX2                !
 ! A9    A(1,2,5)              108.9497         estimate D2E/DX2                !
 ! A10   A(3,2,4)              109.5772         estimate D2E/DX2                !
 ! A11   A(3,2,5)              109.9518         estimate D2E/DX2                !
 ! A12   A(4,2,5)              109.9695         estimate D2E/DX2                !
 ! A13   A(1,6,7)              109.6697         estimate D2E/DX2                !
 ! A14   A(1,6,8)              108.9495         estimate D2E/DX2                !
 ! A15   A(1,6,9)              108.7006         estimate D2E/DX2                !
 ! A16   A(7,6,8)              109.9526         estimate D2E/DX2                !
 ! A17   A(7,6,9)              109.5771         estimate D2E/DX2                !
 ! A18   A(8,6,9)              109.9694         estimate D2E/DX2                !
 ! A19   A(1,10,11)            109.168          estimate D2E/DX2                !
 ! A20   A(1,10,12)            109.1679         estimate D2E/DX2                !
 ! A21   A(1,10,13)            108.9398         estimate D2E/DX2                !
 ! A22   A(11,10,12)           109.8015         estimate D2E/DX2                !
 ! A23   A(11,10,13)           109.871          estimate D2E/DX2                !
 ! A24   A(12,10,13)           109.8711         estimate D2E/DX2                !
 ! A25   A(1,14,15)            106.6088         estimate D2E/DX2                !
 ! A26   A(1,14,16)            106.6081         estimate D2E/DX2                !
 ! A27   A(1,14,17)            117.1532         estimate D2E/DX2                !
 ! A28   A(15,14,16)           109.0848         estimate D2E/DX2                !
 ! A29   A(15,14,17)           108.5869         estimate D2E/DX2                !
 ! A30   A(16,14,17)           108.5837         estimate D2E/DX2                !
 ! A31   A(14,17,18)           111.3302         estimate D2E/DX2                !
 ! A32   A(14,17,19)           111.3331         estimate D2E/DX2                !
 ! A33   A(14,17,20)           101.1772         estimate D2E/DX2                !
 ! A34   A(18,17,19)           109.0762         estimate D2E/DX2                !
 ! A35   A(18,17,20)           111.8929         estimate D2E/DX2                !
 ! A36   A(19,17,20)           111.8922         estimate D2E/DX2                !
 ! A37   A(17,20,21)           109.6909         estimate D2E/DX2                !
 ! D1    D(6,1,2,3)            -60.1435         estimate D2E/DX2                !
 ! D2    D(6,1,2,4)             59.6367         estimate D2E/DX2                !
 ! D3    D(6,1,2,5)            179.4667         estimate D2E/DX2                !
 ! D4    D(10,1,2,3)          -179.375          estimate D2E/DX2                !
 ! D5    D(10,1,2,4)           -59.5948         estimate D2E/DX2                !
 ! D6    D(10,1,2,5)            60.2352         estimate D2E/DX2                !
 ! D7    D(14,1,2,3)            62.2765         estimate D2E/DX2                !
 ! D8    D(14,1,2,4)          -177.9433         estimate D2E/DX2                !
 ! D9    D(14,1,2,5)           -58.1133         estimate D2E/DX2                !
 ! D10   D(2,1,6,7)             60.0315         estimate D2E/DX2                !
 ! D11   D(2,1,6,8)           -179.5785         estimate D2E/DX2                !
 ! D12   D(2,1,6,9)            -59.7483         estimate D2E/DX2                !
 ! D13   D(10,1,6,7)           179.2621         estimate D2E/DX2                !
 ! D14   D(10,1,6,8)           -60.3479         estimate D2E/DX2                !
 ! D15   D(10,1,6,9)            59.4823         estimate D2E/DX2                !
 ! D16   D(14,1,6,7)           -62.39           estimate D2E/DX2                !
 ! D17   D(14,1,6,8)            58.0            estimate D2E/DX2                !
 ! D18   D(14,1,6,9)           177.8302         estimate D2E/DX2                !
 ! D19   D(2,1,10,11)          179.6198         estimate D2E/DX2                !
 ! D20   D(2,1,10,12)          -60.3452         estimate D2E/DX2                !
 ! D21   D(2,1,10,13)           59.6373         estimate D2E/DX2                !
 ! D22   D(6,1,10,11)           60.3041         estimate D2E/DX2                !
 ! D23   D(6,1,10,12)         -179.6609         estimate D2E/DX2                !
 ! D24   D(6,1,10,13)          -59.6784         estimate D2E/DX2                !
 ! D25   D(14,1,10,11)         -60.0369         estimate D2E/DX2                !
 ! D26   D(14,1,10,12)          59.9981         estimate D2E/DX2                !
 ! D27   D(14,1,10,13)         179.9806         estimate D2E/DX2                !
 ! D28   D(2,1,14,15)           61.0221         estimate D2E/DX2                !
 ! D29   D(2,1,14,16)          177.447          estimate D2E/DX2                !
 ! D30   D(2,1,14,17)          -60.7678         estimate D2E/DX2                !
 ! D31   D(6,1,14,15)         -177.4818         estimate D2E/DX2                !
 ! D32   D(6,1,14,16)          -61.0569         estimate D2E/DX2                !
 ! D33   D(6,1,14,17)           60.7283         estimate D2E/DX2                !
 ! D34   D(10,1,14,15)         -58.2296         estimate D2E/DX2                !
 ! D35   D(10,1,14,16)          58.1952         estimate D2E/DX2                !
 ! D36   D(10,1,14,17)         179.9804         estimate D2E/DX2                !
 ! D37   D(1,14,17,18)         -60.9723         estimate D2E/DX2                !
 ! D38   D(1,14,17,19)          60.9773         estimate D2E/DX2                !
 ! D39   D(1,14,17,20)        -179.9972         estimate D2E/DX2                !
 ! D40   D(15,14,17,18)        178.2708         estimate D2E/DX2                !
 ! D41   D(15,14,17,19)        -59.7796         estimate D2E/DX2                !
 ! D42   D(15,14,17,20)         59.2458         estimate D2E/DX2                !
 ! D43   D(16,14,17,18)         59.7811         estimate D2E/DX2                !
 ! D44   D(16,14,17,19)       -178.2693         estimate D2E/DX2                !
 ! D45   D(16,14,17,20)        -59.2439         estimate D2E/DX2                !
 ! D46   D(14,17,20,21)       -179.9998         estimate D2E/DX2                !
 ! D47   D(18,17,20,21)         61.3805         estimate D2E/DX2                !
 ! D48   D(19,17,20,21)        -61.3768         estimate D2E/DX2                !
 --------------------------------------------------------------------------------
 Trust Radius=3.00D-01 FncErr=1.00D-07 GrdErr=1.00D-06 EigMax=2.50D+02 EigMin=1.00D-04
 Number of steps in this run=    115 maximum allowed number of steps=    126.
 GradGradGradGradGradGradGradGradGradGradGradGradGradGradGradGradGradGrad

 Leave Link  103 at Mon Mar 23 14:55:38 2026, MaxMem=   104857600 cpu:               0.0 elap:               0.0
 (Enter C:\G16W\l202.exe)
                          Input orientation:                          
 ---------------------------------------------------------------------
 Center     Atomic      Atomic             Coordinates (Angstroms)
 Number     Number       Type             X           Y           Z
 ---------------------------------------------------------------------
      1          7           0        0.879897    0.024009    0.000002
      2          6           0        1.134702   -0.810839    1.230045
      3          1           0        0.466839   -1.671885    1.233776
      4          1           0        2.171778   -1.152254    1.212776
      5          1           0        0.958295   -0.198476    2.117140
      6          6           0        1.134289   -0.811472   -1.229695
      7          1           0        0.467780   -1.673583   -1.231731
      8          1           0        0.955651   -0.200138   -2.117056
      9          1           0        2.171925   -1.151233   -1.213619
     10          6           0        1.821462    1.204092   -0.000437
     11          1           0        1.642298    1.805332   -0.894039
     12          1           0        1.642076    1.806172    0.892552
     13          1           0        2.850004    0.836917   -0.000137
     14          6           0       -0.542075    0.568752    0.000061
     15          1           0       -0.636474    1.196142    0.890967
     16          1           0       -0.636520    1.196176   -0.890815
     17          6           0       -1.681850   -0.453388    0.000021
     18          1           0       -1.647842   -1.089788   -0.894787
     19          1           0       -1.647907   -1.089863    0.894774
     20          8           0       -2.812098    0.396378    0.000026
     21          1           0       -3.619572   -0.135482    0.000006
 ---------------------------------------------------------------------
                    Distance matrix (angstroms):
                    1          2          3          4          5
     1  N    0.000000
     2  C    1.508278   0.000000
     3  H    2.137492   1.089704   0.000000
     4  H    2.126822   1.091966   1.782491   0.000000
     5  H    2.130239   1.092266   1.786839   1.788884   0.000000
     6  C    1.508277   2.459740   2.693416   2.675478   3.407058
     7  H    2.137481   2.692481   2.465508   3.025063   3.692084
     8  H    2.130238   3.407066   3.692296   3.670595   4.234197
     9  H    2.126830   2.676414   3.027894   2.426395   3.670776
    10  C    1.509682   2.458795   3.410210   2.673382   2.682608
    11  H    2.133934   3.407893   4.242681   3.669650   3.681074
    12  H    2.133932   2.687020   3.687072   3.022484   2.446587
    13  H    2.131230   2.677818   3.673704   2.426510   3.022162
    14  C    1.522744   2.495539   2.749621   3.434754   2.705877
    15  H    2.113550   2.698150   3.091989   3.674888   2.447805
    16  H    2.113540   3.415170   3.735915   4.222174   3.679169
    17  C    2.605850   3.094139   2.761114   4.099956   3.393750
    18  H    2.903559   3.512161   3.056386   4.362937   4.081433
    19  H    2.903639   2.816589   2.219419   3.833407   3.013476
    20  O    3.710726   4.306687   4.068326   5.357989   4.364847
    21  H    4.502295   4.957038   4.536681   6.003696   5.044114
                    6          7          8          9         10
     6  C    0.000000
     7  H    1.089713   0.000000
     8  H    1.092268   1.786857   0.000000
     9  H    1.091964   1.782495   1.788883   0.000000
    10  C    2.458817   3.410213   2.683573   2.672488   0.000000
    11  H    2.686708   3.687327   2.447277   3.020582   1.091840
    12  H    3.407908   4.242669   3.681603   3.669188   1.091837
    13  H    2.678185   3.673476   3.024137   2.425916   1.092115
    14  C    2.495499   2.750488   2.704914   3.434700   2.447440
    15  H    3.415161   3.736381   3.678677   4.222151   2.614596
    16  H    2.698380   3.093739   2.447114   3.674492   2.614290
    17  C    3.093714   2.761702   3.391543   4.100182   3.875621
    18  H    2.816004   2.220406   3.010580   3.833543   4.254153
    19  H    3.511621   3.055959   4.079368   4.363508   4.254428
    20  O    4.306401   4.069344   4.362774   5.358033   4.703433
    21  H    4.956644   4.537552   5.041706   6.003838   5.603509
                   11         12         13         14         15
    11  H    0.000000
    12  H    1.786591   0.000000
    13  H    1.787580   1.787579   0.000000
    14  C    2.664588   2.664257   3.402663   0.000000
    15  H    2.958067   2.358798   3.616440   1.093729   0.000000
    16  H    2.358833   2.957109   3.616383   1.093728   1.781782
    17  C    4.117174   4.117124   4.711962   1.530966   2.146519
    18  H    4.382550   4.733363   4.974255   2.185001   3.072012
    19  H    4.733651   4.383037   4.974389   2.185035   2.499766
    20  O    4.756695   4.756447   5.679214   2.276558   2.483292
    21  H    5.679203   5.679049   6.542245   3.157045   3.386135
                   16         17         18         19         20
    16  H    0.000000
    17  C    2.146477   0.000000
    18  H    2.499684   1.098564   0.000000
    19  H    3.072004   1.098561   1.789561   0.000000
    20  O    2.483227   1.414059   2.089228   2.089217   0.000000
    21  H    3.386071   1.963627   2.366236   2.366203   0.966897
                   21
    21  H    0.000000
 Stoichiometry    C5H14NO(1+)
 Framework group  C1[X(C5H14NO)]
 Deg. of freedom    57
 Full point group                 C1      NOp   1
 Largest Abelian subgroup         C1      NOp   1
 Largest concise Abelian subgroup C1      NOp   1
                         Standard orientation:                         
 ---------------------------------------------------------------------
 Center     Atomic      Atomic             Coordinates (Angstroms)
 Number     Number       Type             X           Y           Z
 ---------------------------------------------------------------------
      1          7           0        0.879897    0.024009    0.000002
      2          6           0        1.134702   -0.810839    1.230045
      3          1           0        0.466839   -1.671885    1.233776
      4          1           0        2.171778   -1.152254    1.212776
      5          1           0        0.958295   -0.198476    2.117140
      6          6           0        1.134289   -0.811472   -1.229695
      7          1           0        0.467780   -1.673583   -1.231731
      8          1           0        0.955651   -0.200138   -2.117056
      9          1           0        2.171925   -1.151233   -1.213619
     10          6           0        1.821462    1.204092   -0.000437
     11          1           0        1.642298    1.805332   -0.894039
     12          1           0        1.642076    1.806172    0.892552
     13          1           0        2.850004    0.836917   -0.000137
     14          6           0       -0.542075    0.568752    0.000061
     15          1           0       -0.636474    1.196142    0.890967
     16          1           0       -0.636520    1.196176   -0.890815
     17          6           0       -1.681850   -0.453388    0.000021
     18          1           0       -1.647842   -1.089788   -0.894787
     19          1           0       -1.647907   -1.089863    0.894774
     20          8           0       -2.812098    0.396378    0.000026
     21          1           0       -3.619572   -0.135482    0.000006
 ---------------------------------------------------------------------
 Rotational constants (GHZ):           4.2422528           1.4588890           1.4309912
 Leave Link  202 at Mon Mar 23 14:55:38 2026, MaxMem=   104857600 cpu:               0.0 elap:               0.0
 (Enter C:\G16W\l301.exe)
 Standard basis: 6-31+G (6D, 7F)
 Ernie: Thresh=  0.10000D-02 Tol=  0.10000D-05 Strict=F.
 There are   119 symmetry adapted cartesian basis functions of A   symmetry.
 There are   119 symmetry adapted basis functions of A   symmetry.
   119 basis functions,   238 primitive gaussians,   119 cartesian basis functions
    29 alpha electrons       29 beta electrons
       nuclear repulsion energy       353.6622200917 Hartrees.
 IExCor=  402 DFT=T Ex+Corr=B3LYP ExCW=0 ScaHFX=  0.200000
 ScaDFX=  0.800000  0.720000  1.000000  0.810000 ScalE2=  1.000000  1.000000
 IRadAn=      5 IRanWt=     -1 IRanGd=            0 ICorTp=0 IEmpDi=141
 NAtoms=   21 NActive=   21 NUniq=   21 SFac= 1.00D+00 NAtFMM=   60 NAOKFM=F Big=F
 Integral buffers will be    131072 words long.
 Raffenetti 2 integral format.
 Two-electron integral symmetry is turned on.
 R6Disp:  Grimme-D3(BJ) Dispersion energy=       -0.0305803074 Hartrees.
 Nuclear repulsion after empirical dispersion term =      353.6316397843 Hartrees.
 Leave Link  301 at Mon Mar 23 14:55:38 2026, MaxMem=   104857600 cpu:               0.0 elap:               0.0
 (Enter C:\G16W\l302.exe)
 NPDir=0 NMtPBC=     1 NCelOv=     1 NCel=       1 NClECP=     1 NCelD=      1
         NCelK=      1 NCelE2=     1 NClLst=     1 CellRange=     0.0.
 One-electron integrals computed using PRISM.
 One-electron integral symmetry used in STVInt
 NBasis=   119 RedAO= T EigKep=  5.43D-05  NBF=   119
 NBsUse=   119 1.00D-06 EigRej= -1.00D+00 NBFU=   119
 Precomputing XC quadrature grid using
 IXCGrd= 4 IRadAn=           5 IRanWt=          -1 IRanGd=           0 AccXCQ= 0.00D+00.
 Generated NRdTot=       0 NPtTot=           0 NUsed=           0 NTot=          32
 NSgBfM=   119   119   119   119   119 MxSgAt=    21 MxSgA2=    21.
 Leave Link  302 at Mon Mar 23 14:55:38 2026, MaxMem=   104857600 cpu:               0.0 elap:               0.3
 (Enter C:\G16W\l303.exe)
 DipDrv:  MaxL=1.
 Leave Link  303 at Mon Mar 23 14:55:38 2026, MaxMem=   104857600 cpu:               0.0 elap:               0.0
 (Enter C:\G16W\l401.exe)
 ExpMin= 4.38D-02 ExpMax= 5.48D+03 ExpMxC= 8.25D+02 IAcc=3 IRadAn=         5 AccDes= 0.00D+00
 Harris functional with IExCor=  402 and IRadAn=       5 diagonalized for initial guess.
 HarFok:  IExCor=  402 AccDes= 0.00D+00 IRadAn=         5 IDoV= 1 UseB2=F ITyADJ=14
 ICtDFT=  3500011 ScaDFX=  1.000000  1.000000  1.000000  1.000000
 FoFCou: FMM=F IPFlag=           0 FMFlag=      100000 FMFlg1=           0
         NFxFlg=           0 DoJE=T BraDBF=F KetDBF=T FulRan=T
         wScrn=  0.000000 ICntrl=       500 IOpCl=  0 I1Cent=   200000004 NGrid=           0
         NMat0=    1 NMatS0=      1 NMatT0=    0 NMatD0=    1 NMtDS0=    0 NMtDT0=    0
 Petite list used in FoFCou.
 Harris En= -328.668732873893    
 JPrj=0 DoOrth=F DoCkMO=F.
 Leave Link  401 at Mon Mar 23 14:55:44 2026, MaxMem=   104857600 cpu:               6.0 elap:               5.5
 (Enter C:\G16W\l502.exe)
 Keep R1 ints in memory in canonical form, NReq=26439544.
 FoFCou: FMM=F IPFlag=           0 FMFlag=           0 FMFlg1=           0
         NFxFlg=           0 DoJE=F BraDBF=F KetDBF=F FulRan=T
         wScrn=  0.000000 ICntrl=       600 IOpCl=  0 I1Cent=           0 NGrid=           0
         NMat0=    1 NMatS0=   7140 NMatT0=    0 NMatD0=    1 NMtDS0=    0 NMtDT0=    0
 Symmetry not used in FoFCou.
 Two-electron integral symmetry not used.
 Closed shell SCF:
 Using DIIS extrapolation, IDIIS=  1040.
 NGot=   104857600 LenX=    79333005 LenY=    79318403
 Requested convergence on RMS density matrix=1.00D-08 within 128 cycles.
 Requested convergence on MAX density matrix=1.00D-06.
 Requested convergence on             energy=1.00D-06.
 No special actions if energy rises.

 Cycle   1  Pass 1  IDiag  1:
 E= -328.453536174385    
 DIIS: error= 3.81D-02 at cycle   1 NSaved=   1.
 NSaved= 1 IEnMin= 1 EnMin= -328.453536174385     IErMin= 1 ErrMin= 3.81D-02
 ErrMax= 3.81D-02  0.00D+00 EMaxC= 1.00D-01 BMatC= 1.78D-01 BMatP= 1.78D-01
 IDIUse=3 WtCom= 6.19D-01 WtEn= 3.81D-01
 Coeff-Com:  0.100D+01
 Coeff-En:   0.100D+01
 Coeff:      0.100D+01
 Gap=     0.191 Goal=   None    Shift=    0.000
 GapD=    0.191 DampG=1.000 DampE=0.500 DampFc=0.5000 IDamp=-1.
 Damping current iteration by 5.00D-01
 RMSDP=1.20D-02 MaxDP=1.86D-01              OVMax= 1.60D-01

 Cycle   2  Pass 1  IDiag  1:
 E= -328.515265544362     Delta-E=       -0.061729369977 Rises=F Damp=T
 DIIS: error= 1.22D-02 at cycle   2 NSaved=   2.
 NSaved= 2 IEnMin= 2 EnMin= -328.515265544362     IErMin= 2 ErrMin= 1.22D-02
 ErrMax= 1.22D-02  0.00D+00 EMaxC= 1.00D-01 BMatC= 1.84D-02 BMatP= 1.78D-01
 IDIUse=3 WtCom= 8.78D-01 WtEn= 1.22D-01
 Coeff-Com:  0.183D+00 0.817D+00
 Coeff-En:   0.264D+00 0.736D+00
 Coeff:      0.193D+00 0.807D+00
 Gap=     0.298 Goal=   None    Shift=    0.000
 RMSDP=3.44D-03 MaxDP=8.08D-02 DE=-6.17D-02 OVMax= 1.08D-01

 Cycle   3  Pass 1  IDiag  1:
 E= -328.622040122680     Delta-E=       -0.106774578318 Rises=F Damp=F
 DIIS: error= 6.60D-03 at cycle   3 NSaved=   3.
 NSaved= 3 IEnMin= 3 EnMin= -328.622040122680     IErMin= 3 ErrMin= 6.60D-03
 ErrMax= 6.60D-03  0.00D+00 EMaxC= 1.00D-01 BMatC= 5.65D-03 BMatP= 1.84D-02
 IDIUse=3 WtCom= 9.34D-01 WtEn= 6.60D-02
 Coeff-Com:  0.524D-01 0.352D+00 0.595D+00
 Coeff-En:   0.000D+00 0.000D+00 0.100D+01
 Coeff:      0.490D-01 0.329D+00 0.622D+00
 Gap=     0.276 Goal=   None    Shift=    0.000
 RMSDP=9.18D-04 MaxDP=1.54D-02 DE=-1.07D-01 OVMax= 1.72D-02

 Cycle   4  Pass 1  IDiag  1:
 E= -328.626101795074     Delta-E=       -0.004061672394 Rises=F Damp=F
 DIIS: error= 2.78D-03 at cycle   4 NSaved=   4.
 NSaved= 4 IEnMin= 4 EnMin= -328.626101795074     IErMin= 4 ErrMin= 2.78D-03
 ErrMax= 2.78D-03  0.00D+00 EMaxC= 1.00D-01 BMatC= 1.08D-03 BMatP= 5.65D-03
 IDIUse=3 WtCom= 9.72D-01 WtEn= 2.78D-02
 Coeff-Com:  0.457D-02 0.506D-01 0.319D+00 0.626D+00
 Coeff-En:   0.000D+00 0.000D+00 0.161D+00 0.839D+00
 Coeff:      0.444D-02 0.492D-01 0.315D+00 0.632D+00
 Gap=     0.283 Goal=   None    Shift=    0.000
 RMSDP=5.71D-04 MaxDP=1.65D-02 DE=-4.06D-03 OVMax= 5.84D-03

 Cycle   5  Pass 1  IDiag  1:
 E= -328.627102417201     Delta-E=       -0.001000622127 Rises=F Damp=F
 DIIS: error= 4.12D-04 at cycle   5 NSaved=   5.
 NSaved= 5 IEnMin= 5 EnMin= -328.627102417201     IErMin= 5 ErrMin= 4.12D-04
 ErrMax= 4.12D-04  0.00D+00 EMaxC= 1.00D-01 BMatC= 1.92D-05 BMatP= 1.08D-03
 IDIUse=3 WtCom= 9.96D-01 WtEn= 4.12D-03
 Coeff-Com:  0.275D-03 0.102D-01 0.108D+00 0.262D+00 0.619D+00
 Coeff-En:   0.000D+00 0.000D+00 0.000D+00 0.000D+00 0.100D+01
 Coeff:      0.273D-03 0.102D-01 0.108D+00 0.261D+00 0.621D+00
 Gap=     0.282 Goal=   None    Shift=    0.000
 RMSDP=4.97D-05 MaxDP=1.01D-03 DE=-1.00D-03 OVMax= 9.39D-04

 Cycle   6  Pass 1  IDiag  1:
 E= -328.627113277173     Delta-E=       -0.000010859972 Rises=F Damp=F
 DIIS: error= 2.24D-04 at cycle   6 NSaved=   6.
 NSaved= 6 IEnMin= 6 EnMin= -328.627113277173     IErMin= 6 ErrMin= 2.24D-04
 ErrMax= 2.24D-04  0.00D+00 EMaxC= 1.00D-01 BMatC= 4.64D-06 BMatP= 1.92D-05
 IDIUse=3 WtCom= 9.98D-01 WtEn= 2.24D-03
 Coeff-Com: -0.300D-03-0.604D-03 0.113D-01 0.505D-01 0.368D+00 0.571D+00
 Coeff-En:   0.000D+00 0.000D+00 0.000D+00 0.000D+00 0.215D+00 0.785D+00
 Coeff:     -0.299D-03-0.603D-03 0.113D-01 0.504D-01 0.368D+00 0.571D+00
 Gap=     0.282 Goal=   None    Shift=    0.000
 RMSDP=4.39D-05 MaxDP=1.55D-03 DE=-1.09D-05 OVMax= 3.56D-04

 Cycle   7  Pass 1  IDiag  1:
 E= -328.627117429277     Delta-E=       -0.000004152104 Rises=F Damp=F
 DIIS: error= 1.40D-05 at cycle   7 NSaved=   7.
 NSaved= 7 IEnMin= 7 EnMin= -328.627117429277     IErMin= 7 ErrMin= 1.40D-05
 ErrMax= 1.40D-05  0.00D+00 EMaxC= 1.00D-01 BMatC= 1.52D-08 BMatP= 4.64D-06
 IDIUse=1 WtCom= 1.00D+00 WtEn= 0.00D+00
 Coeff-Com: -0.383D-04-0.389D-03 0.190D-02 0.103D-01 0.874D-01 0.150D+00
 Coeff-Com:  0.751D+00
 Coeff:     -0.383D-04-0.389D-03 0.190D-02 0.103D-01 0.874D-01 0.150D+00
 Coeff:      0.751D+00
 Gap=     0.282 Goal=   None    Shift=    0.000
 RMSDP=3.59D-06 MaxDP=1.11D-04 DE=-4.15D-06 OVMax= 3.37D-05

 Cycle   8  Pass 1  IDiag  1:
 E= -328.627117440530     Delta-E=       -0.000000011253 Rises=F Damp=F
 DIIS: error= 4.54D-06 at cycle   8 NSaved=   8.
 NSaved= 8 IEnMin= 8 EnMin= -328.627117440530     IErMin= 8 ErrMin= 4.54D-06
 ErrMax= 4.54D-06  0.00D+00 EMaxC= 1.00D-01 BMatC= 4.80D-09 BMatP= 1.52D-08
 IDIUse=1 WtCom= 1.00D+00 WtEn= 0.00D+00
 Coeff-Com:  0.204D-04-0.140D-03-0.288D-03-0.284D-03 0.500D-02 0.164D-01
 Coeff-Com:  0.390D+00 0.589D+00
 Coeff:      0.204D-04-0.140D-03-0.288D-03-0.284D-03 0.500D-02 0.164D-01
 Coeff:      0.390D+00 0.589D+00
 Gap=     0.282 Goal=   None    Shift=    0.000
 RMSDP=1.16D-06 MaxDP=1.82D-05 DE=-1.13D-08 OVMax= 1.23D-05

 Cycle   9  Pass 1  IDiag  1:
 E= -328.627117445628     Delta-E=       -0.000000005098 Rises=F Damp=F
 DIIS: error= 4.28D-07 at cycle   9 NSaved=   9.
 NSaved= 9 IEnMin= 9 EnMin= -328.627117445628     IErMin= 9 ErrMin= 4.28D-07
 ErrMax= 4.28D-07  0.00D+00 EMaxC= 1.00D-01 BMatC= 1.80D-11 BMatP= 4.80D-09
 IDIUse=1 WtCom= 1.00D+00 WtEn= 0.00D+00
 Coeff-Com:  0.193D-05 0.272D-05-0.948D-04-0.344D-03-0.280D-02-0.362D-02
 Coeff-Com:  0.935D-02 0.548D-01 0.943D+00
 Coeff:      0.193D-05 0.272D-05-0.948D-04-0.344D-03-0.280D-02-0.362D-02
 Coeff:      0.935D-02 0.548D-01 0.943D+00
 Gap=     0.282 Goal=   None    Shift=    0.000
 RMSDP=1.11D-07 MaxDP=1.84D-06 DE=-5.10D-09 OVMax= 1.36D-06

 Cycle  10  Pass 1  IDiag  1:
 E= -328.627117445647     Delta-E=       -0.000000000020 Rises=F Damp=F
 DIIS: error= 6.91D-08 at cycle  10 NSaved=  10.
 NSaved=10 IEnMin=10 EnMin= -328.627117445647     IErMin=10 ErrMin= 6.91D-08
 ErrMax= 6.91D-08  0.00D+00 EMaxC= 1.00D-01 BMatC= 6.22D-13 BMatP= 1.80D-11
 IDIUse=1 WtCom= 1.00D+00 WtEn= 0.00D+00
 Coeff-Com:  0.171D-06 0.261D-05-0.211D-04-0.889D-04-0.809D-03-0.116D-02
 Coeff-Com: -0.277D-02 0.711D-02 0.261D+00 0.737D+00
 Coeff:      0.171D-06 0.261D-05-0.211D-04-0.889D-04-0.809D-03-0.116D-02
 Coeff:     -0.277D-02 0.711D-02 0.261D+00 0.737D+00
 Gap=     0.282 Goal=   None    Shift=    0.000
 RMSDP=2.55D-08 MaxDP=2.78D-07 DE=-1.96D-11 OVMax= 2.40D-07

 Cycle  11  Pass 1  IDiag  1:
 E= -328.627117445654     Delta-E=       -0.000000000007 Rises=F Damp=F
 DIIS: error= 2.92D-08 at cycle  11 NSaved=  11.
 NSaved=11 IEnMin=11 EnMin= -328.627117445654     IErMin=11 ErrMin= 2.92D-08
 ErrMax= 2.92D-08  0.00D+00 EMaxC= 1.00D-01 BMatC= 1.27D-13 BMatP= 6.22D-13
 IDIUse=1 WtCom= 1.00D+00 WtEn= 0.00D+00
 Coeff-Com: -0.888D-07 0.101D-05-0.340D-05-0.180D-04-0.182D-03-0.279D-03
 Coeff-Com: -0.193D-02-0.351D-03 0.562D-01 0.340D+00 0.606D+00
 Coeff:     -0.888D-07 0.101D-05-0.340D-05-0.180D-04-0.182D-03-0.279D-03
 Coeff:     -0.193D-02-0.351D-03 0.562D-01 0.340D+00 0.606D+00
 Gap=     0.282 Goal=   None    Shift=    0.000
 RMSDP=5.09D-09 MaxDP=7.33D-08 DE=-6.82D-12 OVMax= 6.69D-08

 SCF Done:  E(RB3LYP) =  -328.627117446     A.U. after   11 cycles
            NFock= 11  Conv=0.51D-08     -V/T= 2.0056
 KE= 3.268089197448D+02 PE=-1.460002856632D+03 EE= 4.509351796577D+02
 Leave Link  502 at Mon Mar 23 14:57:07 2026, MaxMem=   104857600 cpu:              83.0 elap:              83.5
 (Enter C:\G16W\l601.exe)
 Copying SCF densities to generalized density rwf, IOpCl= 0 IROHF=0.

 **********************************************************************

            Population analysis using the SCF Density.

 **********************************************************************

 Orbital symmetries:
       Occupied  (A) (A) (A) (A) (A) (A) (A) (A) (A) (A) (A) (A)
                 (A) (A) (A) (A) (A) (A) (A) (A) (A) (A) (A) (A)
                 (A) (A) (A) (A) (A)
       Virtual   (A) (A) (A) (A) (A) (A) (A) (A) (A) (A) (A) (A)
                 (A) (A) (A) (A) (A) (A) (A) (A) (A) (A) (A) (A)
                 (A) (A) (A) (A) (A) (A) (A) (A) (A) (A) (A) (A)
                 (A) (A) (A) (A) (A) (A) (A) (A) (A) (A) (A) (A)
                 (A) (A) (A) (A) (A) (A) (A) (A) (A) (A) (A) (A)
                 (A) (A) (A) (A) (A) (A) (A) (A) (A) (A) (A) (A)
                 (A) (A) (A) (A) (A) (A) (A) (A) (A) (A) (A) (A)
                 (A) (A) (A) (A) (A) (A)
 The electronic state is 1-A.
 Alpha  occ. eigenvalues --  -19.30341 -14.64387 -10.40856 -10.40855 -10.40788
 Alpha  occ. eigenvalues --  -10.40719 -10.40505  -1.20386  -1.19252  -0.94878
 Alpha  occ. eigenvalues --   -0.92939  -0.92937  -0.84568  -0.78357  -0.71923
 Alpha  occ. eigenvalues --   -0.70422  -0.68946  -0.65652  -0.65341  -0.61865
 Alpha  occ. eigenvalues --   -0.60382  -0.58158  -0.58106  -0.57995  -0.57428
 Alpha  occ. eigenvalues --   -0.56661  -0.55220  -0.49208  -0.43079
 Alpha virt. eigenvalues --   -0.14897  -0.13517  -0.11517  -0.11331  -0.11121
 Alpha virt. eigenvalues --   -0.10798  -0.10070  -0.09697  -0.07464  -0.07008
 Alpha virt. eigenvalues --   -0.06082  -0.05098  -0.04059  -0.03031  -0.02832
 Alpha virt. eigenvalues --   -0.02171  -0.02071  -0.00786  -0.00355   0.00674
 Alpha virt. eigenvalues --    0.01162   0.01510   0.01729   0.02134   0.02278
 Alpha virt. eigenvalues --    0.03060   0.05170   0.05354   0.07225   0.08097
 Alpha virt. eigenvalues --    0.08593   0.09721   0.10800   0.11165   0.12149
 Alpha virt. eigenvalues --    0.13394   0.13494   0.14279   0.15231   0.15282
 Alpha virt. eigenvalues --    0.15697   0.17901   0.21062   0.21869   0.23080
 Alpha virt. eigenvalues --    0.24793   0.27030   0.36687   0.44394   0.46309
 Alpha virt. eigenvalues --    0.48146   0.48908   0.49354   0.51831   0.54550
 Alpha virt. eigenvalues --    0.55372   0.57881   0.62739   0.65321   0.67367
 Alpha virt. eigenvalues --    0.71035   0.74497   0.75134   0.81208   0.83030
 Alpha virt. eigenvalues --    0.85777   0.86226   0.90792   0.91223   0.92395
 Alpha virt. eigenvalues --    0.93022   0.94419   0.94703   0.95964   0.98803
 Alpha virt. eigenvalues --    1.00505   1.02673   1.05791   1.08494   1.10298
 Alpha virt. eigenvalues --    1.13056   1.19143   1.20597   1.22563   1.30649
 Alpha virt. eigenvalues --    1.36729   1.38756   1.57156   1.70371   1.80669
     Molecular Orbital Coefficients:
                           1         2         3         4         5
                           O         O         O         O         O
     Eigenvalues --   -19.30341 -14.64387 -10.40856 -10.40855 -10.40788
   1 1   N  1S         -0.00002   0.99557   0.00004   0.00013   0.00008
   2        2S         -0.00018   0.03540   0.00020   0.00069   0.00040
   3        2PX         0.00005   0.00003  -0.00001  -0.00003   0.00000
   4        2PY         0.00005   0.00002   0.00003   0.00009   0.00005
   5        2PZ         0.00000   0.00000   0.00006  -0.00002   0.00000
   6        3S          0.00034  -0.03534   0.00022   0.00074   0.00108
   7        3PX        -0.00022   0.00044   0.00028   0.00098  -0.00177
   8        3PY        -0.00033  -0.00038  -0.00058  -0.00202   0.00020
   9        3PZ         0.00000   0.00000  -0.00222   0.00064   0.00000
  10        4S          0.00523  -0.00796   0.01333   0.04625   0.03191
  11        4PX        -0.00112  -0.00127  -0.00037  -0.00131  -0.01433
  12        4PY        -0.00155  -0.00089  -0.00340  -0.01183   0.00194
  13        4PZ         0.00000   0.00000  -0.01555   0.00448   0.00000
  14 2   C  1S          0.00001  -0.00005  -0.48139   0.87131   0.01326
  15        2S          0.00008  -0.00058  -0.01966   0.03460  -0.00019
  16        2PX         0.00008  -0.00010   0.00006  -0.00028   0.00029
  17        2PY        -0.00008   0.00032  -0.00024   0.00076  -0.00010
  18        2PZ         0.00001  -0.00049   0.00070  -0.00096  -0.00004
  19        3S         -0.00106   0.00863   0.02015  -0.03630   0.00022
  20        3PX        -0.00013  -0.00072   0.00023   0.00152  -0.00218
  21        3PY         0.00015   0.00247  -0.00027  -0.00362   0.00032
  22        3PZ         0.00069  -0.00332  -0.00295   0.00377   0.00118
  23        4S         -0.00021   0.00087   0.02822  -0.03162   0.00931
  24        4PX         0.00004  -0.00014  -0.00151   0.00195  -0.00209
  25        4PY         0.00045  -0.00016   0.00334  -0.00679   0.00188
  26        4PZ         0.00022   0.00047  -0.00804   0.00860  -0.00114
  27 3   H  1S          0.00004  -0.00039   0.00015  -0.00044  -0.00004
  28        2S         -0.00056   0.00000  -0.00579   0.00383  -0.00333
  29 4   H  1S          0.00003  -0.00043   0.00008  -0.00048   0.00006
  30        2S          0.00005   0.00029  -0.00555   0.00407   0.00131
  31 5   H  1S          0.00002  -0.00040   0.00029  -0.00029  -0.00023
  32        2S         -0.00089  -0.00007  -0.00214   0.00566  -0.00258
  33 6   C  1S          0.00001  -0.00005   0.87146   0.48111   0.01316
  34        2S          0.00008  -0.00059   0.03506   0.01882  -0.00019
  35        2PX         0.00008  -0.00010  -0.00020  -0.00020   0.00029
  36        2PY        -0.00008   0.00032   0.00061   0.00051  -0.00010
  37        2PZ        -0.00001   0.00049   0.00111   0.00044   0.00004
  38        3S         -0.00106   0.00863  -0.03638  -0.01999   0.00022
  39        3PX        -0.00013  -0.00072   0.00061   0.00142  -0.00219
  40        3PY         0.00015   0.00247  -0.00170  -0.00321   0.00031
  41        3PZ        -0.00069   0.00332  -0.00450  -0.00162  -0.00117
  42        4S         -0.00021   0.00087  -0.04070  -0.01175   0.00931
  43        4PX         0.00004  -0.00015   0.00231   0.00085  -0.00209
  44        4PY         0.00045  -0.00016  -0.00645  -0.00397   0.00188
  45        4PZ        -0.00022  -0.00046  -0.01138  -0.00300   0.00114
  46 7   H  1S          0.00004  -0.00039  -0.00036  -0.00029  -0.00004
  47        2S         -0.00057   0.00000   0.00693   0.00017  -0.00334
  48 8   H  1S          0.00002  -0.00040  -0.00040  -0.00009  -0.00023
  49        2S         -0.00089  -0.00008   0.00483   0.00365  -0.00257
  50 9   H  1S          0.00003  -0.00043  -0.00032  -0.00036   0.00006
  51        2S          0.00005   0.00029   0.00688   0.00048   0.00131
  52 10  C  1S          0.00002  -0.00007  -0.00203  -0.00710  -0.00310
  53        2S          0.00020  -0.00066  -0.00037  -0.00128  -0.00068
  54        2PX        -0.00010  -0.00040  -0.00003  -0.00009   0.00007
  55        2PY        -0.00003  -0.00047   0.00004   0.00015  -0.00012
  56        2PZ         0.00000   0.00000   0.00026  -0.00007   0.00000
  57        3S         -0.00063   0.00917   0.00055   0.00192   0.00124
  58        3PX         0.00085  -0.00270   0.00037   0.00128  -0.00128
  59        3PY         0.00024  -0.00342  -0.00022  -0.00077   0.00125
  60        3PZ         0.00000   0.00000  -0.00264   0.00076   0.00000
  61        4S         -0.00792   0.00119   0.00503   0.01756   0.00784
  62        4PX         0.00261   0.00029  -0.00059  -0.00208  -0.00243
  63        4PY         0.00060   0.00014  -0.00119  -0.00414  -0.00050
  64        4PZ         0.00000   0.00000  -0.00215   0.00062   0.00000
  65 11  H  1S          0.00005  -0.00043  -0.00016  -0.00003  -0.00013
  66        2S         -0.00005   0.00021  -0.00309  -0.00054  -0.00215
  67 12  H  1S          0.00005  -0.00043   0.00012  -0.00011  -0.00013
  68        2S         -0.00005   0.00021   0.00233  -0.00211  -0.00215
  69 13  H  1S         -0.00005  -0.00045  -0.00006  -0.00021  -0.00001
  70        2S         -0.00020   0.00030  -0.00109  -0.00376   0.00130
  71 14  C  1S          0.00005  -0.00009  -0.00520  -0.01827   0.99507
  72        2S          0.00031  -0.00078  -0.00053  -0.00185   0.04031
  73        2PX         0.00010   0.00038  -0.00001  -0.00003   0.00114
  74        2PY        -0.00005  -0.00011   0.00005   0.00019  -0.00051
  75        2PZ         0.00000   0.00000   0.00036  -0.00010   0.00000
  76        3S         -0.00357   0.01001   0.00086   0.00298  -0.04410
  77        3PX         0.00140   0.00463  -0.00042  -0.00146  -0.00184
  78        3PY         0.00182  -0.00250  -0.00050  -0.00173   0.00266
  79        3PZ         0.00000   0.00000  -0.00300   0.00087   0.00000
  80        4S         -0.01471  -0.00268   0.00271   0.00951  -0.06357
  81        4PX         0.01205   0.00045  -0.00056  -0.00202  -0.00869
  82        4PY         0.00609   0.00105  -0.00067  -0.00238   0.01122
  83        4PZ         0.00000   0.00000  -0.00141   0.00041   0.00000
  84 15  H  1S          0.00015  -0.00044   0.00014  -0.00014  -0.00030
  85        2S         -0.00135   0.00037   0.00231  -0.00278   0.00749
  86 16  H  1S          0.00015  -0.00044  -0.00020  -0.00005  -0.00030
  87        2S         -0.00135   0.00036  -0.00343  -0.00112   0.00749
  88 17  C  1S         -0.00004   0.00005   0.00048   0.00167   0.02775
  89        2S         -0.00057   0.00016   0.00030   0.00106   0.00020
  90        2PX        -0.00046  -0.00018  -0.00001  -0.00002  -0.00011
  91        2PY         0.00029   0.00001  -0.00003  -0.00012  -0.00026
  92        2PZ         0.00000   0.00000   0.00011  -0.00003   0.00000
  93        3S          0.00752  -0.00215  -0.00170  -0.00591   0.00756
  94        3PX        -0.00199  -0.00026  -0.00096  -0.00337   0.00312
  95        3PY         0.00251  -0.00105  -0.00009  -0.00033   0.00319
  96        3PZ         0.00000   0.00000   0.00052  -0.00015   0.00000
  97        4S          0.01841   0.00101  -0.00121  -0.00434   0.02062
  98        4PX         0.00426   0.00000  -0.00037  -0.00129   0.00306
  99        4PY         0.00200   0.00003  -0.00020  -0.00071   0.00321
 100        4PZ         0.00000   0.00000  -0.00118   0.00034   0.00000
 101 18  H  1S         -0.00034   0.00014   0.00003   0.00025  -0.00030
 102        2S         -0.00158  -0.00021   0.00022  -0.00005  -0.00013
 103 19  H  1S         -0.00034   0.00014   0.00011   0.00023  -0.00030
 104        2S         -0.00158  -0.00021  -0.00020   0.00007  -0.00013
 105 20  O  1S          0.99514  -0.00001   0.00000   0.00000   0.00000
 106        2S          0.03010  -0.00014   0.00000  -0.00001   0.00002
 107        2PX         0.00022  -0.00013   0.00001   0.00004  -0.00004
 108        2PY        -0.00193  -0.00001  -0.00001  -0.00002  -0.00009
 109        2PZ         0.00000   0.00000   0.00001   0.00000   0.00000
 110        3S         -0.02085   0.00044   0.00001   0.00002  -0.00104
 111        3PX        -0.00200   0.00102  -0.00004  -0.00013   0.00014
 112        3PY         0.00302   0.00000   0.00005   0.00019   0.00071
 113        3PZ         0.00000   0.00000  -0.00008   0.00002   0.00000
 114        4S          0.00926   0.00157  -0.00056  -0.00196   0.00000
 115        4PX         0.00350   0.00101  -0.00005  -0.00018   0.00234
 116        4PY         0.00104   0.00021   0.00003   0.00009  -0.00032
 117        4PZ         0.00000   0.00000   0.00032  -0.00009   0.00000
 118 21  H  1S          0.00038   0.00012   0.00000  -0.00001   0.00015
 119        2S          0.00305   0.00048  -0.00002  -0.00008   0.00137
                           6         7         8         9        10
                           O         O         O         O         O
     Eigenvalues --   -10.40719 -10.40505  -1.20386  -1.19252  -0.94878
   1 1   N  1S          0.00009   0.00000  -0.15761   0.09695   0.01182
   2        2S          0.00046  -0.00010   0.31410  -0.19300  -0.02437
   3        2PX        -0.00007   0.00012   0.00082  -0.00901  -0.18396
   4        2PY        -0.00005   0.00014  -0.00027   0.00010   0.04822
   5        2PZ         0.00000   0.00000   0.00000   0.00000  -0.00003
   6        3S          0.00109  -0.00094   0.40810  -0.24887  -0.04479
   7        3PX         0.00132   0.00034  -0.00007  -0.00146  -0.08376
   8        3PY         0.00164  -0.00123   0.00707   0.00465   0.02108
   9        3PZ         0.00000   0.00000   0.00000   0.00000  -0.00001
  10        4S          0.03285   0.01874   0.10687  -0.12122  -0.02305
  11        4PX         0.00744  -0.00985   0.02570   0.02023  -0.00812
  12        4PY         0.01182  -0.00482   0.02260   0.01324  -0.00104
  13        4PZ         0.00000   0.00000   0.00000   0.00001  -0.00001
  14 2   C  1S          0.00509  -0.00141  -0.04999   0.03140   0.03963
  15        2S         -0.00056   0.00063   0.09867  -0.06300  -0.07694
  16        2PX        -0.00015  -0.00001  -0.01068   0.00485  -0.03089
  17        2PY        -0.00015   0.00002   0.03413  -0.02092  -0.00600
  18        2PZ        -0.00003   0.00001  -0.05009   0.03139   0.02080
  19        3S          0.00107  -0.00364   0.01802  -0.00114  -0.06781
  20        3PX         0.00156   0.00117   0.00473  -0.00278  -0.00258
  21        3PY         0.00130  -0.00079  -0.01678   0.00808   0.00188
  22        3PZ         0.00069   0.00169   0.01763  -0.01716  -0.00067
  23        4S          0.01019  -0.00378  -0.00373   0.00251  -0.03689
  24        4PX         0.00102  -0.00036   0.00343   0.00063   0.01117
  25        4PY         0.00281  -0.00117   0.00133  -0.00365  -0.00697
  26        4PZ        -0.00132   0.00110  -0.00348   0.00072   0.00709
  27 3   H  1S          0.00003   0.00022   0.01892  -0.01179  -0.01513
  28        2S          0.00128  -0.00162  -0.00819   0.00997   0.00655
  29 4   H  1S         -0.00015  -0.00001   0.01899  -0.01265  -0.03602
  30        2S         -0.00272  -0.00047  -0.01289   0.00654  -0.00050
  31 5   H  1S         -0.00018   0.00025   0.01917  -0.01201  -0.01786
  32        2S         -0.00269  -0.00137  -0.00832   0.01075   0.00336
  33 6   C  1S          0.00508  -0.00140  -0.04999   0.03140   0.03958
  34        2S         -0.00056   0.00063   0.09867  -0.06299  -0.07685
  35        2PX        -0.00015  -0.00001  -0.01067   0.00484  -0.03090
  36        2PY        -0.00015   0.00002   0.03415  -0.02094  -0.00599
  37        2PZ         0.00004  -0.00001   0.05008  -0.03138  -0.02079
  38        3S          0.00107  -0.00364   0.01803  -0.00115  -0.06771
  39        3PX         0.00156   0.00116   0.00473  -0.00276  -0.00260
  40        3PY         0.00131  -0.00079  -0.01678   0.00810   0.00188
  41        3PZ        -0.00069  -0.00169  -0.01763   0.01715   0.00067
  42        4S          0.01020  -0.00377  -0.00371   0.00250  -0.03682
  43        4PX         0.00102  -0.00036   0.00344   0.00063   0.01116
  44        4PY         0.00282  -0.00117   0.00134  -0.00364  -0.00696
  45        4PZ         0.00132  -0.00110   0.00348  -0.00073  -0.00706
  46 7   H  1S          0.00003   0.00022   0.01892  -0.01179  -0.01514
  47        2S          0.00128  -0.00162  -0.00819   0.00999   0.00652
  48 8   H  1S         -0.00018   0.00025   0.01917  -0.01201  -0.01779
  49        2S         -0.00270  -0.00138  -0.00832   0.01075   0.00335
  50 9   H  1S         -0.00015  -0.00001   0.01899  -0.01265  -0.03600
  51        2S         -0.00272  -0.00047  -0.01289   0.00654  -0.00051
  52 10  C  1S          0.99551   0.00247  -0.04959   0.03200   0.05178
  53        2S          0.03972  -0.00029   0.09862  -0.06404  -0.09975
  54        2PX        -0.00091   0.00009  -0.03752   0.02450  -0.01368
  55        2PY        -0.00111  -0.00001  -0.04756   0.03097   0.03393
  56        2PZ         0.00000   0.00000   0.00002  -0.00001  -0.00001
  57        3S         -0.04114   0.00108   0.00490  -0.01004  -0.08964
  58        3PX         0.00357  -0.00095   0.01550  -0.01358  -0.00001
  59        3PY         0.00406   0.00033   0.02261  -0.01244  -0.00108
  60        3PZ         0.00000   0.00000  -0.00001   0.00000   0.00000
  61        4S         -0.04034   0.02127  -0.03105   0.03233  -0.03077
  62        4PX         0.00818  -0.00515   0.00228  -0.01005   0.01146
  63        4PY         0.01089  -0.00383   0.00801   0.00326   0.00261
  64        4PZ         0.00000   0.00000   0.00000   0.00000   0.00000
  65 11  H  1S         -0.00044  -0.00007   0.01881  -0.01231  -0.02438
  66        2S          0.00647  -0.00112  -0.01136   0.00735   0.00459
  67 12  H  1S         -0.00044  -0.00007   0.01881  -0.01231  -0.02438
  68        2S          0.00647  -0.00112  -0.01136   0.00735   0.00458
  69 13  H  1S         -0.00048   0.00000   0.01924  -0.01221  -0.04235
  70        2S          0.00635   0.00034  -0.01124   0.00794  -0.00215
  71 14  C  1S          0.00290  -0.02772  -0.05925   0.01112  -0.15391
  72        2S         -0.00032  -0.00183   0.11393  -0.02830   0.29721
  73        2PX        -0.00008   0.00031   0.04314  -0.05576  -0.01585
  74        2PY        -0.00026   0.00035  -0.02579   0.00453  -0.03322
  75        2PZ         0.00000   0.00000   0.00000   0.00000  -0.00001
  76        3S         -0.00058   0.00882   0.03529   0.04327   0.26955
  77        3PX         0.00145  -0.00595  -0.03914  -0.00087   0.01283
  78        3PY         0.00316  -0.00323   0.00897  -0.01603   0.00094
  79        3PZ         0.00000   0.00000   0.00000   0.00000   0.00000
  80        4S          0.00042   0.02566   0.11820   0.22458   0.07131
  81        4PX        -0.00093  -0.01971  -0.03200  -0.08490   0.04695
  82        4PY         0.00310  -0.00838  -0.02953  -0.06242  -0.00987
  83        4PZ         0.00000   0.00000   0.00000   0.00000   0.00001
  84 15  H  1S         -0.00016  -0.00013   0.02297  -0.00479   0.08957
  85        2S         -0.00279  -0.00235  -0.01265   0.01027  -0.00831
  86 16  H  1S         -0.00016  -0.00013   0.02297  -0.00479   0.08958
  87        2S         -0.00279  -0.00235  -0.01265   0.01027  -0.00831
  88 17  C  1S         -0.00247   0.99522  -0.05031  -0.06465  -0.09332
  89        2S         -0.00062   0.03968   0.09828   0.12819   0.18198
  90        2PX        -0.00004  -0.00031  -0.02939  -0.08490   0.09404
  91        2PY         0.00004   0.00063   0.03823   0.05441   0.03754
  92        2PZ         0.00000   0.00000   0.00000   0.00000   0.00000
  93        3S          0.00338  -0.04462   0.03026   0.02284   0.18251
  94        3PX         0.00133  -0.00215   0.00729   0.01716   0.00107
  95        3PY         0.00062  -0.00381  -0.01531  -0.02847   0.01206
  96        3PZ         0.00000   0.00000   0.00000   0.00000   0.00000
  97        4S          0.00237  -0.05099  -0.08291  -0.22151   0.06325
  98        4PX         0.00186  -0.00571  -0.00888  -0.03750   0.01052
  99        4PY        -0.00085  -0.00893  -0.01600  -0.03736   0.00980
 100        4PZ         0.00000   0.00000   0.00000   0.00000   0.00000
 101 18  H  1S         -0.00009  -0.00025   0.01646   0.01966   0.05159
 102        2S         -0.00052   0.00652  -0.00437  -0.00033  -0.00301
 103 19  H  1S         -0.00009  -0.00025   0.01646   0.01967   0.05159
 104        2S         -0.00052   0.00653  -0.00437  -0.00033  -0.00301
 105 20  O  1S          0.00001   0.00004  -0.09905  -0.17473   0.04991
 106        2S          0.00010   0.00014   0.21567   0.37949  -0.11098
 107        2PX        -0.00002  -0.00023   0.00918   0.00631   0.09752
 108        2PY        -0.00002   0.00028  -0.06520  -0.11571   0.02793
 109        2PZ         0.00000   0.00000   0.00000   0.00000   0.00000
 110        3S         -0.00055   0.00239   0.22991   0.41327  -0.15040
 111        3PX        -0.00010   0.00096   0.00844   0.02364   0.02713
 112        3PY         0.00016  -0.00100  -0.03830  -0.06642   0.02510
 113        3PZ         0.00000   0.00000   0.00000   0.00000   0.00000
 114        4S          0.00074   0.01568  -0.00641   0.01081  -0.04592
 115        4PX        -0.00003   0.00148  -0.02719  -0.02863  -0.00072
 116        4PY        -0.00066  -0.00562  -0.00941  -0.01644   0.01524
 117        4PZ         0.00000   0.00000   0.00000   0.00000   0.00000
 118 21  H  1S          0.00004   0.00033   0.06356   0.11715  -0.07742
 119        2S         -0.00007  -0.00395  -0.02719  -0.03831   0.00829
                          11        12        13        14        15
                           O         O         O         O         O
     Eigenvalues --    -0.92939  -0.92937  -0.84568  -0.78357  -0.71923
   1 1   N  1S          0.00014  -0.00164  -0.06967  -0.07379  -0.00763
   2        2S         -0.00027   0.00308   0.14513   0.15677   0.01452
   3        2PX        -0.00446   0.05130  -0.14481   0.10701   0.25080
   4        2PY        -0.02042   0.23417   0.03924  -0.06330  -0.00742
   5        2PZ        -0.23844  -0.02079   0.00001  -0.00001  -0.00002
   6        3S         -0.00061   0.00697   0.28933   0.32691   0.04546
   7        3PX        -0.00195   0.02248  -0.08240   0.06480   0.19040
   8        3PY        -0.00958   0.10991   0.03178  -0.05191   0.00575
   9        3PZ        -0.11117  -0.00970   0.00000   0.00000  -0.00001
  10        4S         -0.00047   0.00560   0.13876   0.08826  -0.01380
  11        4PX        -0.00021   0.00224  -0.02106   0.01982   0.12647
  12        4PY        -0.00171   0.01926   0.04167  -0.04818   0.01949
  13        4PZ        -0.01245  -0.00109   0.00000  -0.00001   0.00000
  14 2   C  1S          0.12949   0.09668   0.05269   0.06097   0.00410
  15        2S         -0.25013  -0.18647  -0.09859  -0.11412  -0.00696
  16        2PX         0.00889   0.01756  -0.03713  -0.00222   0.12567
  17        2PY        -0.03552   0.02200   0.03828   0.05727   0.03953
  18        2PZ         0.00228   0.03124  -0.03754  -0.11719  -0.04617
  19        3S         -0.24308  -0.18216  -0.14088  -0.19937  -0.01831
  20        3PX         0.00022   0.00151   0.00088   0.00050   0.04163
  21        3PY        -0.00212   0.00076  -0.00533   0.00135   0.00375
  22        3PZ        -0.00063   0.00140   0.00338  -0.00261  -0.01020
  23        4S         -0.08733  -0.06158   0.01673  -0.06748  -0.00774
  24        4PX         0.00550   0.00072   0.00064   0.00727   0.00854
  25        4PY        -0.01050  -0.01802   0.00370  -0.00797   0.00138
  26        4PZ         0.02637   0.01233  -0.00452   0.01291  -0.00006
  27 3   H  1S         -0.07619  -0.07504  -0.04715  -0.06834  -0.06683
  28        2S          0.00281  -0.00341  -0.01350  -0.02215  -0.03458
  29 4   H  1S         -0.07653  -0.05929  -0.06132  -0.05970   0.05377
  30        2S          0.00354   0.00170  -0.01933  -0.01958   0.01530
  31 5   H  1S         -0.09226  -0.04916  -0.04099  -0.08210  -0.02250
  32        2S         -0.00008   0.00580  -0.01005  -0.02786  -0.00708
  33 6   C  1S         -0.14425   0.07289   0.05268   0.06097   0.00409
  34        2S          0.27858  -0.14052  -0.09857  -0.11414  -0.00695
  35        2PX        -0.01177   0.01575  -0.03712  -0.00219   0.12569
  36        2PY         0.03120   0.02778   0.03831   0.05734   0.03953
  37        2PZ         0.00763  -0.03039   0.03753   0.11717   0.04608
  38        3S          0.27088  -0.13750  -0.14088  -0.19938  -0.01829
  39        3PX        -0.00048   0.00145   0.00090   0.00049   0.04167
  40        3PY         0.00196   0.00112  -0.00533   0.00135   0.00377
  41        3PZ        -0.00039  -0.00149  -0.00338   0.00260   0.01020
  42        4S          0.09658  -0.04565   0.01666  -0.06749  -0.00779
  43        4PX        -0.00553  -0.00024   0.00066   0.00727   0.00856
  44        4PY         0.01346  -0.01595   0.00370  -0.00797   0.00138
  45        4PZ         0.02808  -0.00761   0.00450  -0.01291   0.00004
  46 7   H  1S          0.08798  -0.06078  -0.04716  -0.06833  -0.06673
  47        2S         -0.00221  -0.00383  -0.01348  -0.02216  -0.03449
  48 8   H  1S          0.09937  -0.03252  -0.04096  -0.08212  -0.02261
  49        2S         -0.00094   0.00573  -0.01002  -0.02788  -0.00711
  50 9   H  1S          0.08565  -0.04516  -0.06131  -0.05971   0.05382
  51        2S         -0.00378   0.00107  -0.01933  -0.01959   0.01532
  52 10  C  1S          0.01296  -0.14922   0.08815   0.02875   0.03467
  53        2S         -0.02500   0.28785  -0.16774  -0.05245  -0.06156
  54        2PX         0.00292  -0.03362  -0.07199  -0.01985  -0.00637
  55        2PY         0.00086  -0.01005  -0.02968  -0.09844  -0.15052
  56        2PZ        -0.04537  -0.00394   0.00002   0.00002   0.00005
  57        3S         -0.02426   0.27935  -0.23334  -0.09301  -0.15520
  58        3PX         0.00018  -0.00205  -0.00470   0.01199   0.01525
  59        3PY        -0.00002   0.00026   0.01330  -0.01312  -0.02230
  60        3PZ        -0.00334  -0.00029  -0.00001   0.00000   0.00000
  61        4S         -0.00963   0.11164  -0.07013   0.00226  -0.16780
  62        4PX         0.00195  -0.02260   0.01391   0.00195   0.03361
  63        4PY         0.00240  -0.02776   0.01779  -0.00809   0.03390
  64        4PZ         0.00941   0.00083  -0.00001   0.00000  -0.00001
  65 11  H  1S          0.00627   0.09840  -0.06750  -0.05131  -0.07137
  66        2S          0.00462  -0.00341  -0.01552  -0.01733  -0.02644
  67 12  H  1S         -0.02313   0.09585  -0.06749  -0.05133  -0.07139
  68        2S         -0.00398  -0.00416  -0.01552  -0.01734  -0.02645
  69 13  H  1S         -0.00746   0.08581  -0.09097  -0.02005  -0.00435
  70        2S          0.00050  -0.00563  -0.01705  -0.01425  -0.00251
  71 14  C  1S          0.00155  -0.01752  -0.01826   0.08312  -0.03491
  72        2S         -0.00298   0.03357   0.03758  -0.15999   0.06457
  73        2PX        -0.00236   0.02711   0.15900  -0.01774  -0.15480
  74        2PY        -0.00377   0.04324   0.03319  -0.12156   0.13072
  75        2PZ        -0.04433  -0.00387   0.00000   0.00000   0.00000
  76        3S         -0.00276   0.03123   0.01080  -0.22745   0.15431
  77        3PX         0.00000   0.00004  -0.01695  -0.00812  -0.01731
  78        3PY        -0.00031   0.00358   0.01450  -0.02604   0.03176
  79        3PZ        -0.00278  -0.00024   0.00000   0.00001  -0.00001
  80        4S         -0.00154   0.01874   0.06277  -0.10165   0.13318
  81        4PX         0.00153  -0.01780  -0.04968   0.05926   0.06384
  82        4PY         0.00166  -0.01950  -0.00665   0.02568  -0.00501
  83        4PZ         0.00628   0.00055  -0.00001   0.00000  -0.00001
  84 15  H  1S         -0.01651   0.01915   0.01273  -0.09991   0.07268
  85        2S         -0.00371   0.00060  -0.01083  -0.02548   0.03327
  86 16  H  1S          0.01291   0.02172   0.01272  -0.09992   0.07269
  87        2S          0.00354   0.00123  -0.01084  -0.02547   0.03327
  88 17  C  1S         -0.00107   0.01251   0.11734  -0.09024   0.02022
  89        2S          0.00222  -0.02579  -0.23079   0.17968  -0.03619
  90        2PX         0.00083  -0.00960  -0.01850  -0.03192  -0.04668
  91        2PY        -0.00075   0.00852   0.01176  -0.08404   0.21237
  92        2PZ        -0.01154  -0.00100   0.00000   0.00000  -0.00001
  93        3S          0.00196  -0.02281  -0.27493   0.23074  -0.05742
  94        3PX         0.00048  -0.00580  -0.01643   0.00449  -0.01215
  95        3PY        -0.00019   0.00210   0.00076  -0.02764   0.07804
  96        3PZ        -0.00278  -0.00024   0.00000   0.00000   0.00000
  97        4S          0.00184  -0.02202  -0.12383   0.17616   0.04320
  98        4PX         0.00027  -0.00322  -0.01544   0.02940   0.01681
  99        4PY         0.00013  -0.00160  -0.02141   0.02298   0.01240
 100        4PZ         0.00538   0.00047   0.00000   0.00000   0.00000
 101 18  H  1S          0.00637  -0.01118  -0.08801   0.08921  -0.08135
 102        2S          0.00305  -0.00286  -0.01316   0.01546  -0.03207
 103 19  H  1S         -0.00435  -0.01211  -0.08801   0.08922  -0.08136
 104        2S         -0.00254  -0.00335  -0.01317   0.01547  -0.03209
 105 20  O  1S          0.00034  -0.00400  -0.04237   0.02661  -0.01214
 106        2S         -0.00081   0.00949   0.09683  -0.06131   0.02894
 107        2PX         0.00050  -0.00591  -0.15235   0.09615   0.21620
 108        2PY        -0.00006   0.00062   0.00293  -0.04028   0.06506
 109        2PZ        -0.00202  -0.00018   0.00000   0.00000   0.00000
 110        3S         -0.00082   0.00964   0.13310  -0.08376   0.03399
 111        3PX         0.00025  -0.00295  -0.06098   0.03658   0.10699
 112        3PY        -0.00008   0.00092  -0.00945  -0.01668   0.04042
 113        3PZ        -0.00037  -0.00003   0.00000   0.00000   0.00000
 114        4S          0.00048  -0.00550   0.03472  -0.02379  -0.01038
 115        4PX         0.00008  -0.00104  -0.01252   0.00457  -0.00345
 116        4PY         0.00003  -0.00038  -0.01818   0.00938   0.00774
 117        4PZ        -0.00191  -0.00017   0.00000   0.00000   0.00000
 118 21  H  1S         -0.00044   0.00516   0.09602  -0.05566  -0.11255
 119        2S         -0.00003   0.00027  -0.00324  -0.00660  -0.03465
                          16        17        18        19        20
                           O         O         O         O         O
     Eigenvalues --    -0.70422  -0.68946  -0.65652  -0.65341  -0.61865
   1 1   N  1S          0.00000  -0.00350  -0.01702  -0.00002   0.00151
   2        2S          0.00000   0.00860   0.03196   0.00003  -0.00431
   3        2PX         0.00003   0.07120  -0.13222  -0.00010  -0.04067
   4        2PY         0.00001   0.32589   0.01740   0.00011  -0.07493
   5        2PZ         0.30549   0.00001   0.00012  -0.11833   0.00002
   6        3S          0.00000   0.01216   0.11222   0.00011  -0.00311
   7        3PX         0.00001   0.05373  -0.14244  -0.00012  -0.02805
   8        3PY         0.00000   0.25010   0.04028   0.00008  -0.05023
   9        3PZ         0.24162   0.00002   0.00008  -0.09351   0.00002
  10        4S         -0.00003   0.04184   0.01021   0.00001   0.00568
  11        4PX         0.00001   0.00063  -0.04740  -0.00004   0.01047
  12        4PY        -0.00001   0.11504   0.06680   0.00003   0.00882
  13        4PZ         0.14738   0.00001  -0.00001  -0.00502   0.00001
  14 2   C  1S          0.04410  -0.02117  -0.00860  -0.00079  -0.00114
  15        2S         -0.07715   0.03613   0.01440  -0.00246   0.00311
  16        2PX        -0.05792   0.05581  -0.12979  -0.09559  -0.05850
  17        2PY         0.18130   0.07069   0.02100  -0.10735   0.19742
  18        2PZ        -0.09602   0.18475   0.05507   0.03352   0.11593
  19        3S         -0.20792   0.10705   0.05145   0.02390  -0.00048
  20        3PX        -0.01308   0.00989  -0.04933  -0.06463  -0.02962
  21        3PY         0.03492   0.04216   0.00666  -0.03382   0.10484
  22        3PZ         0.00223   0.04651   0.01303   0.00245   0.07000
  23        4S         -0.23347   0.13620   0.08398   0.00375  -0.00184
  24        4PX         0.01410  -0.00622  -0.00838  -0.00410  -0.00416
  25        4PY        -0.02805   0.03376   0.01812  -0.00120   0.00572
  26        4PZ         0.05901  -0.02209  -0.01660   0.00195   0.00555
  27 3   H  1S         -0.09483  -0.02806   0.03958   0.08786  -0.07654
  28        2S         -0.03676  -0.01025   0.01500   0.04936  -0.04291
  29 4   H  1S         -0.09604   0.03288  -0.07352  -0.03116  -0.06943
  30        2S         -0.03785   0.01672  -0.04560  -0.00514  -0.03574
  31 5   H  1S         -0.01751   0.11681   0.05174  -0.00754   0.13071
  32        2S         -0.00513   0.04656   0.02949  -0.00693   0.06427
  33 6   C  1S         -0.04408  -0.02119  -0.00861   0.00076  -0.00114
  34        2S          0.07712   0.03615   0.01442   0.00251   0.00312
  35        2PX         0.05787   0.05574  -0.12998   0.09543  -0.05845
  36        2PY        -0.18139   0.07047   0.02077   0.10738   0.19744
  37        2PZ        -0.09586  -0.18487  -0.05509   0.03324  -0.11604
  38        3S          0.20786   0.10719   0.05145  -0.02382  -0.00049
  39        3PX         0.01308   0.00983  -0.04941   0.06459  -0.02965
  40        3PY        -0.03493   0.04210   0.00661   0.03388   0.10481
  41        3PZ         0.00226  -0.04653  -0.01304   0.00233  -0.07004
  42        4S          0.23338   0.13637   0.08377  -0.00370  -0.00181
  43        4PX        -0.01408  -0.00624  -0.00833   0.00411  -0.00418
  44        4PY         0.02806   0.03379   0.01811   0.00122   0.00571
  45        4PZ         0.05898   0.02213   0.01653   0.00194  -0.00554
  46 7   H  1S          0.09493  -0.02809   0.03963  -0.08772  -0.07686
  47        2S          0.03682  -0.01029   0.01509  -0.04923  -0.04312
  48 8   H  1S          0.01745   0.11675   0.05184   0.00751   0.13075
  49        2S          0.00510   0.04652   0.02956   0.00691   0.06431
  50 9   H  1S          0.09595   0.03307  -0.07356   0.03118  -0.06913
  51        2S          0.03780   0.01683  -0.04560   0.00514  -0.03555
  52 10  C  1S         -0.00001   0.04068  -0.00878   0.00000   0.00023
  53        2S          0.00002  -0.07064   0.01736   0.00000  -0.00169
  54        2PX         0.00007  -0.19880  -0.07923  -0.00016   0.25840
  55        2PY         0.00007  -0.13320   0.11121   0.00000  -0.11952
  56        2PZ         0.16494   0.00014   0.00012  -0.15073   0.00003
  57        3S          0.00007  -0.20185   0.03320   0.00000   0.00588
  58        3PX         0.00001  -0.03387  -0.02905  -0.00005   0.12592
  59        3PY         0.00000  -0.01206   0.03683  -0.00001  -0.07430
  60        3PZ         0.05134   0.00005   0.00008  -0.07516   0.00004
  61        4S          0.00011  -0.26134  -0.02410   0.00002   0.01196
  62        4PX        -0.00002   0.05297  -0.00156  -0.00001   0.00664
  63        4PY        -0.00002   0.04793   0.01725   0.00000  -0.00393
  64        4PZ         0.01235  -0.00002   0.00000  -0.00843   0.00000
  65 11  H  1S         -0.07407  -0.05746   0.05053   0.06823  -0.06310
  66        2S         -0.03058  -0.02203   0.02657   0.02923  -0.03283
  67 12  H  1S          0.07407  -0.05737   0.05069  -0.06815  -0.06317
  68        2S          0.03058  -0.02200   0.02662  -0.02918  -0.03287
  69 13  H  1S          0.00005  -0.11470  -0.06224  -0.00011   0.17212
  70        2S          0.00002  -0.05044  -0.03810  -0.00006   0.09122
  71 14  C  1S         -0.00001   0.02675   0.05514   0.00005  -0.01032
  72        2S          0.00002  -0.05229  -0.09534  -0.00009   0.01883
  73        2PX         0.00000   0.07863   0.05895   0.00008  -0.06025
  74        2PY         0.00001   0.04425  -0.06599  -0.00003  -0.14717
  75        2PZ         0.19745  -0.00003  -0.00018   0.21683   0.00004
  76        3S          0.00000  -0.09555  -0.26673  -0.00023   0.04021
  77        3PX         0.00000   0.01875  -0.03662  -0.00001  -0.04768
  78        3PY         0.00002   0.00536   0.00409   0.00001  -0.08837
  79        3PZ         0.06924  -0.00003  -0.00011   0.11805  -0.00001
  80        4S          0.00010  -0.32366  -0.22996  -0.00013   0.13937
  81        4PX        -0.00003   0.08818  -0.05474  -0.00005  -0.04589
  82        4PY        -0.00004   0.10522   0.03306   0.00002  -0.04600
  83        4PZ         0.00347  -0.00001  -0.00002   0.00833  -0.00001
  84 15  H  1S          0.08678  -0.01322  -0.07229   0.09755  -0.03564
  85        2S          0.03329  -0.00080  -0.02026   0.03818  -0.01925
  86 16  H  1S         -0.08676  -0.01320  -0.07213  -0.09766  -0.03569
  87        2S         -0.03329  -0.00081  -0.02021  -0.03821  -0.01931
  88 17  C  1S          0.00000  -0.03298   0.00848   0.00000   0.00674
  89        2S          0.00000   0.06146  -0.00860   0.00000  -0.00761
  90        2PX         0.00000  -0.06695  -0.16731  -0.00019   0.12168
  91        2PY        -0.00001  -0.11205   0.18938   0.00013   0.06870
  92        2PZ         0.08727  -0.00005  -0.00025   0.30732   0.00001
  93        3S          0.00001   0.10432  -0.02300  -0.00002  -0.06001
  94        3PX         0.00000  -0.01800  -0.01531  -0.00002   0.02939
  95        3PY         0.00000  -0.04087   0.07285   0.00006   0.02287
  96        3PZ         0.03398  -0.00001  -0.00010   0.12823   0.00001
  97        4S         -0.00010   0.28392   0.05417   0.00001  -0.15096
  98        4PX        -0.00002   0.03866   0.03118   0.00002  -0.02413
  99        4PY        -0.00001   0.04225   0.01222   0.00000  -0.01683
 100        4PZ         0.01844   0.00002  -0.00002   0.00925   0.00000
 101 18  H  1S         -0.03251   0.06061  -0.06906  -0.13947  -0.02836
 102        2S         -0.01249   0.02424  -0.03214  -0.08070  -0.01108
 103 19  H  1S          0.03251   0.06057  -0.06928   0.13937  -0.02836
 104        2S          0.01249   0.02421  -0.03228   0.08067  -0.01108
 105 20  O  1S          0.00000   0.01612  -0.02334  -0.00002  -0.00920
 106        2S          0.00000  -0.03688   0.05380   0.00004   0.02159
 107        2PX         0.00000   0.00199   0.38148   0.00035  -0.06157
 108        2PY         0.00000  -0.05902   0.03404   0.00001   0.05840
 109        2PZ         0.03475  -0.00002  -0.00011   0.14170   0.00001
 110        3S          0.00000  -0.05642   0.09370   0.00008   0.03162
 111        3PX         0.00000  -0.00312   0.19040   0.00017  -0.03212
 112        3PY         0.00000  -0.02983   0.01434   0.00000   0.03049
 113        3PZ         0.01931  -0.00001  -0.00006   0.07622   0.00000
 114        4S          0.00000  -0.00174   0.00534   0.00001   0.00353
 115        4PX         0.00000   0.01367  -0.00709   0.00000  -0.00814
 116        4PY         0.00000   0.00431  -0.00602   0.00000  -0.00079
 117        4PZ        -0.00560   0.00000   0.00000   0.00147   0.00000
 118 21  H  1S          0.00000   0.00161  -0.19368  -0.00018   0.02422
 119        2S          0.00000   0.00637  -0.09703  -0.00009   0.00781
                          21        22        23        24        25
                           O         O         O         O         O
     Eigenvalues --    -0.60382  -0.58158  -0.58106  -0.57995  -0.57428
   1 1   N  1S          0.00000   0.00000   0.00039   0.00000  -0.00509
   2        2S         -0.00001   0.00001  -0.00012   0.00000   0.00929
   3        2PX         0.00001  -0.00008  -0.10531  -0.00004  -0.29630
   4        2PY        -0.00009  -0.00004  -0.18677   0.00004   0.17244
   5        2PZ        -0.14611   0.03023   0.00000  -0.24555   0.00001
   6        3S         -0.00002   0.00000  -0.00839   0.00003   0.03598
   7        3PX         0.00001   0.00000  -0.06546  -0.00006  -0.20087
   8        3PY        -0.00002  -0.00004  -0.11838   0.00000   0.11218
   9        3PZ        -0.10053   0.02072   0.00003  -0.15396   0.00001
  10        4S          0.00005  -0.00007  -0.01408  -0.00008  -0.05959
  11        4PX        -0.00002   0.00010   0.02222  -0.00003   0.09340
  12        4PY         0.00008  -0.00005   0.04333  -0.00007  -0.04644
  13        4PZ         0.01710  -0.00214   0.00009   0.06274   0.00005
  14 2   C  1S          0.00414  -0.00009  -0.00568   0.01115   0.00665
  15        2S         -0.01148   0.00063   0.01202  -0.02428  -0.01547
  16        2PX         0.27428  -0.09545   0.18346  -0.13432   0.17051
  17        2PY        -0.02689  -0.21822   0.16062   0.03407  -0.11697
  18        2PZ         0.03701  -0.15231  -0.01720   0.25457   0.02585
  19        3S         -0.00048  -0.00380   0.02112  -0.03614  -0.01467
  20        3PX         0.13451  -0.04397   0.08912  -0.06612   0.08525
  21        3PY         0.00424  -0.10278   0.07391   0.02870  -0.05131
  22        3PZ         0.00615  -0.07029  -0.00193   0.10881  -0.00163
  23        4S         -0.02861  -0.00446   0.05201  -0.11119  -0.09104
  24        4PX         0.01389  -0.00410   0.00339   0.00090   0.01846
  25        4PY        -0.00334  -0.00949   0.01699  -0.01476  -0.02538
  26        4PZ         0.00965  -0.00408  -0.01279   0.04170   0.02097
  27 3   H  1S         -0.09138   0.15165  -0.16543   0.02830  -0.01825
  28        2S         -0.04553   0.10656  -0.12076   0.02756  -0.01036
  29 4   H  1S          0.16356  -0.01355   0.08779  -0.10174   0.14322
  30        2S          0.09960  -0.00850   0.05740  -0.06339   0.10679
  31 5   H  1S         -0.01685  -0.15142   0.04024   0.16389  -0.06130
  32        2S         -0.00761  -0.10180   0.02669   0.11950  -0.03852
  33 6   C  1S         -0.00414   0.00010  -0.00569  -0.01114   0.00666
  34        2S          0.01147  -0.00062   0.01200   0.02428  -0.01548
  35        2PX        -0.27423   0.09558   0.18356   0.13441   0.17032
  36        2PY         0.02701   0.21815   0.16051  -0.03410  -0.11702
  37        2PZ         0.03709  -0.15240   0.01728   0.25453  -0.02587
  38        3S          0.00055   0.00372   0.02129   0.03606  -0.01466
  39        3PX        -0.13448   0.04405   0.08922   0.06613   0.08513
  40        3PY        -0.00422   0.10274   0.07383  -0.02873  -0.05138
  41        3PZ         0.00625  -0.07034   0.00204   0.10881   0.00167
  42        4S          0.02888   0.00423   0.05253   0.11092  -0.09095
  43        4PX        -0.01390   0.00414   0.00340  -0.00090   0.01842
  44        4PY         0.00342   0.00943   0.01704   0.01470  -0.02541
  45        4PZ         0.00972  -0.00413   0.01296   0.04165  -0.02092
  46 7   H  1S          0.09111  -0.15188  -0.16535  -0.02792  -0.01794
  47        2S          0.04534  -0.10670  -0.12073  -0.02729  -0.01020
  48 8   H  1S          0.01719   0.15121   0.03978  -0.16409  -0.06146
  49        2S          0.00782   0.10170   0.02640  -0.11960  -0.03856
  50 9   H  1S         -0.16367   0.01400   0.08808   0.10163   0.14307
  51        2S         -0.09969   0.00880   0.05750   0.06337   0.10671
  52 10  C  1S          0.00000   0.00000   0.01061   0.00000   0.00096
  53        2S          0.00001   0.00000  -0.02360  -0.00001  -0.00273
  54        2PX         0.00001   0.00000  -0.09454   0.00002   0.15543
  55        2PY         0.00009   0.00020   0.29988  -0.00003  -0.07698
  56        2PZ         0.19622   0.28584  -0.00016   0.23125  -0.00005
  57        3S         -0.00006  -0.00003  -0.02922   0.00009   0.00260
  58        3PX         0.00002  -0.00001  -0.05655   0.00002   0.07685
  59        3PY         0.00007   0.00011   0.12612  -0.00006  -0.04648
  60        3PZ         0.11100   0.13476  -0.00007   0.11561  -0.00006
  61        4S         -0.00022  -0.00003  -0.11212   0.00033  -0.01861
  62        4PX         0.00005   0.00001   0.02078  -0.00006   0.01479
  63        4PY         0.00005   0.00001   0.03765  -0.00008  -0.00077
  64        4PZ         0.01101   0.01323   0.00000   0.01391  -0.00003
  65 11  H  1S         -0.10312  -0.15051   0.11367  -0.13434  -0.05412
  66        2S         -0.05697  -0.09938   0.08379  -0.09279  -0.03782
  67 12  H  1S          0.10313   0.15054   0.11368   0.13421  -0.05424
[...]
 .00078158,-0.00272137,-0.00465315,-0.00068361,-0.00105658,0.00037228,-
 0.00098815,0.00017583,0.00066054,0.00004520,0.00005388,0.64090377,-0.0
 0140962,-0.01789977,0.02007849,-0.00289660,-0.00254827,-0.00087087,0.0
 0062804,-0.00070671,0.00100152,0.00027141,-0.00033717,-0.00002355,-0.0
 0017862,0.00006473,-0.00007252,0.00026659,0.00078447,0.00104592,-0.000
 18962,0.00012044,0.00018169,0.00033114,-0.00005718,-0.00020506,-0.0001
 0483,0.00012439,-0.00032549,-0.06023837,0.03172634,-0.04695898,0.06435
 887,0.00112712,-0.02078281,0.02295801,-0.00342589,-0.00299920,-0.00169
 717,0.00020167,-0.00036553,0.00135114,-0.00006974,0.00011011,-0.000274
 92,-0.00013798,0.00008086,0.00015670,0.00048183,0.00072910,0.00200314,
 0.00006250,0.00029403,-0.00029808,-0.00053179,-0.00031827,-0.00087025,
 0.00009387,-0.00028891,-0.00000840,0.02531622,-0.12831110,0.11821478,-
 0.02354761,0.14374045,-0.00097771,-0.00311252,0.00064652,0.00004207,-0
 .00058628,0.00077392,-0.00010153,0.00001011,0.00045772,0.00000204,-0.0
 0023676,-0.00006405,-0.00023124,-0.00013568,0.00031254,-0.00030330,-0.
 00095048,0.00090284,0.00008295,0.00001749,0.00009760,-0.00023885,-0.00
 022920,0.00034314,0.00012197,0.00004189,-0.00003666,-0.03979258,0.1268
 5551,-0.24370248,0.04543810,-0.13465819,0.25741895,-0.00141107,-0.0179
 1353,-0.02006634,0.00026586,0.00078423,-0.00104601,-0.00018957,0.00012
 027,-0.00018169,-0.00010470,0.00012437,0.00032533,0.00033151,-0.000056
 91,0.00020488,-0.00289668,-0.00254843,0.00087344,0.00062778,-0.0007072
 9,-0.00100139,-0.00017839,0.00006480,0.00007264,0.00027143,-0.00033700
 ,0.00002360,-0.06023097,0.03174542,0.04691857,0.00138708,-0.00265159,-
 0.00588609,0.06435022,0.00112560,-0.02079500,-0.02294234,0.00048181,0.
 00072860,-0.00200329,0.00006238,0.00029419,0.00029802,0.00009358,-0.00
 028875,0.00000855,-0.00053129,-0.00031809,0.00087085,-0.00342492,-0.00
 299769,0.00170035,0.00020128,-0.00036623,-0.00135066,-0.00013797,0.000
 08078,-0.00015660,-0.00006970,0.00011034,0.00027489,0.02533137,-0.1284
 8608,-0.11829791,-0.00264588,0.01185616,0.01588643,-0.02356508,0.14393
 118,0.00097634,0.00312918,0.00066229,0.00030297,0.00095006,0.00090355,
 -0.00008294,-0.00001767,0.00009745,-0.00012203,-0.00004158,-0.00003667
 ,0.00023920,0.00022990,0.00034223,-0.00003917,0.00058881,0.00077254,0.
 00010134,-0.00000951,0.00045869,0.00023146,0.00013584,0.00031240,-0.00
 000213,0.00023679,-0.00006437,0.03975717,-0.12693850,-0.24353892,0.005
 88589,-0.01590768,-0.01913131,-0.04540251,0.13473934,0.25723893,-0.023
 61266,0.00497183,0.00000016,0.00020663,0.00153585,-0.00081102,0.000446
 94,-0.00004698,0.00002439,0.00068361,-0.00065802,0.00044659,-0.0001021
 9,-0.00011922,0.00004646,0.00020634,0.00153585,0.00081002,0.00044691,-
 0.00004703,-0.00002453,-0.00010206,-0.00011921,-0.00004626,0.00068339,
 -0.00065866,-0.00044657,-0.29026118,0.09242068,-0.00002116,-0.00260111
 ,0.00159753,0.00174591,-0.00259874,0.00159545,-0.00174657,0.31731863,-
 0.03385203,0.00247057,0.00000063,-0.00143350,0.00128342,-0.00112885,0.
 00010325,0.00009962,-0.00017411,0.00000444,-0.00037492,0.00035116,0.00
 016881,-0.00011890,0.00015669,-0.00143375,0.00128396,0.00112858,0.0001
 0351,0.00009972,0.00017385,0.00016848,-0.00011899,-0.00015673,0.000004
 33,-0.00037523,-0.00035098,0.10524126,-0.08992826,0.00000858,0.0165357
 0,-0.00460401,-0.00229394,0.01655429,-0.00460906,0.00229660,-0.0986731
 7,0.09835608,0.00001351,-0.00000096,-0.00164965,0.00129320,-0.00014866
 ,0.00007180,-0.00026496,-0.00003774,-0.00018931,0.00013389,0.00079742,
 0.00009858,0.00022637,-0.00005834,-0.00010317,-0.00129257,0.00014786,0
 .00007087,0.00026489,0.00003751,-0.00018940,-0.00022633,0.00005822,-0.
 00010297,-0.00013390,-0.00079711,0.00009907,-0.00002559,0.00000917,-0.
 05111312,-0.02620318,0.00943370,0.00141101,0.02619209,-0.00942980,0.00
 141352,0.00002165,-0.00001288,0.04956997,-0.10974815,0.00501476,0.0000
 0021,-0.00911602,0.00960635,-0.00896168,0.00078966,-0.00120063,0.00100
 299,0.00147135,-0.00090587,0.00121693,0.00057449,-0.00077242,0.0015171
 7,-0.00910567,0.00960677,0.00895820,0.00078928,-0.00120080,-0.00100218
 ,0.00057470,-0.00077304,-0.00151678,0.00147116,-0.00090735,-0.00121787
 ,-0.03989331,-0.00106754,0.00000448,0.00123826,0.00196836,-0.00050861,
 0.00123808,0.00196864,0.00050714,-0.00074091,-0.00188823,0.00000057,0.
 42269975,0.01204913,-0.09650664,0.00000068,0.02236112,-0.00984769,0.00
 610000,0.00016119,-0.00046461,-0.00069872,-0.00069491,-0.00174553,0.00
 207594,-0.00062126,0.00119931,-0.00170039,0.02237296,-0.00985623,-0.00
 610129,0.00016154,-0.00046415,0.00069958,-0.00061983,0.00120090,0.0016
 9953,-0.00069551,-0.00174789,-0.00207685,-0.02585324,0.00996040,0.0000
 0057,-0.00173015,0.00009192,-0.00028847,-0.00173045,0.00009240,0.00028
 901,-0.00412994,-0.00475547,0.00000239,0.03500599,0.55461281,-0.000001
 62,-0.00000057,-0.09028854,-0.02925026,0.01199722,-0.00239361,0.000454
 51,-0.00001678,0.00066750,-0.00020819,0.00345172,-0.00458501,-0.001489
 53,0.00058813,0.00032989,0.02924132,-0.01199572,-0.00239362,-0.0004545
 5,0.00001772,0.00066700,0.00148930,-0.00058792,0.00032984,0.00020712,-
 0.00345403,-0.00458150,0.00000985,-0.00000093,0.00170920,0.00143538,0.
 00035665,-0.00005113,-0.00143417,-0.00035776,-0.00004994,0.00000054,0.
 00000123,-0.00043697,0.00000431,0.00000471,0.66212286,-0.01436124,0.02
 276782,0.02841562,0.00081295,-0.00056129,0.00178163,-0.00008060,0.0000
 0863,-0.00016224,0.00005156,-0.00026178,-0.00003271,0.00004079,0.00011
 810,-0.00059979,-0.00546799,0.00101645,-0.00161685,-0.00005752,0.00014
 309,-0.00006415,-0.00007214,-0.00021608,-0.00007471,0.00009982,0.00108
 626,0.00140793,0.00081229,0.00209191,0.00139183,-0.00016495,-0.0001570
 6,0.00001840,-0.00087741,-0.00041107,-0.00040023,0.00024057,-0.0001749
 7,-0.00020749,-0.04746861,0.00799066,0.00979580,0.06508799,0.00505751,
 -0.00991364,-0.01134025,-0.00038247,-0.00019082,-0.00128578,0.00014162
 ,-0.00012857,0.00001721,-0.00015540,0.00018792,0.00034203,0.00055589,-
 0.00001583,0.00081180,0.00137596,0.00024313,0.00140064,-0.00014148,0.0
 0007964,0.00002369,0.00001738,0.00002977,-0.00016506,0.00000795,-0.000
 02606,-0.00051304,-0.00151402,0.00040331,0.00041099,0.00010650,0.00005
 328,0.00020684,-0.00034502,0.00064304,0.00009758,-0.00001406,-0.000090
 82,0.00021991,0.01185686,-0.13666293,-0.12412753,-0.01241162,0.1508132
 2,-0.00225058,0.00247920,0.00036561,-0.00055724,0.00066801,0.00096520,
 -0.00000484,0.00007630,-0.00001539,0.00002506,0.00002264,0.00009820,-0
 .00022927,0.00001151,0.00039125,-0.00058475,0.00058458,0.00068152,-0.0
 0006345,0.00007773,-0.00003317,-0.00019092,-0.00002135,0.00038917,0.00
 008533,-0.00002946,0.00050151,-0.00045426,0.00012273,-0.00000319,0.000
 10945,-0.00017162,-0.00023719,0.00035790,0.00027343,0.00062281,-0.0000
 0288,0.00041451,0.00019901,0.01912588,-0.12874769,-0.23923273,-0.01828
 406,0.13796280,0.25160608,-0.01436499,0.02276192,-0.02841892,-0.005467
 97,0.00101796,0.00161814,-0.00005746,0.00014309,0.00006413,0.00009946,
 0.00108552,-0.00140870,-0.00007206,-0.00021605,0.00007489,0.00081209,-
 0.00056301,-0.00178049,-0.00008056,0.00000873,0.00016202,0.00004148,0.
 00011828,0.00059944,0.00005145,-0.00026157,0.00003298,0.00081160,0.002
 09218,-0.00139396,-0.00087790,-0.00041044,0.00040106,-0.00016480,-0.00
 015720,-0.00001845,0.00024080,-0.00017493,0.00020740,-0.04747139,0.007
 99943,-0.00980876,0.00208933,-0.00227664,0.00211307,0.06509243,0.00505
 836,-0.00991066,0.01134186,0.00137444,0.00024226,-0.00140127,-0.000141
 36,0.00007945,-0.00002379,0.00000799,-0.00002560,0.00051304,0.00001757
 ,0.00003004,0.00016521,-0.00038173,-0.00019079,0.00128620,0.00014158,-
 0.00012829,-0.00001731,0.00055547,-0.00001656,-0.00081168,-0.00015531,
 0.00018773,-0.00034210,-0.00151540,0.00040353,-0.00041013,-0.00034492,
 0.00064331,-0.00009782,0.00010659,0.00005323,-0.00020708,-0.00001429,-
 0.00009104,-0.00022017,0.01186463,-0.13663236,0.12411407,-0.00227766,0
 .01118835,-0.01653705,-0.01241678,0.15077958,0.00224992,-0.00247940,0.
 00036548,0.00058409,-0.00058396,0.00068180,0.00006364,-0.00007804,-0.0
 0003312,-0.00008530,0.00002980,0.00050144,0.00019104,0.00002174,0.0003
 8915,0.00055595,-0.00066680,0.00096522,0.00000502,-0.00007639,-0.00001
 533,0.00022876,-0.00001098,0.00039086,-0.00002506,-0.00002228,0.000098
 08,0.00045555,-0.00012336,-0.00000178,-0.00035705,-0.00027311,0.000623
 27,-0.00010975,0.00017158,-0.00023780,0.00000304,-0.00041458,0.0001992
 1,-0.01914005,0.12873348,-0.23926068,-0.00211436,0.01653381,-0.0200926
 1,0.01829972,-0.13794947,0.25163510,-0.02247444,-0.01340537,0.00000160
 ,-0.00074745,0.00058192,-0.00061050,-0.00152835,0.00000324,-0.00061731
 ,0.00023148,-0.00041724,0.00025634,-0.00001896,-0.00004802,-0.00027282
 ,-0.00074925,0.00058289,0.00060963,-0.00152870,0.00000371,0.00061804,-
 0.00001866,-0.00004750,0.00027323,0.00023128,-0.00041805,-0.00025642,-
 0.00142812,0.00152325,-0.00000040,-0.00001076,-0.00003649,0.00024771,-
 0.00001071,-0.00003667,-0.00024768,0.00020942,-0.00075466,0.00000024,-
 0.11385238,-0.06423124,0.00000115,0.00043547,-0.00226455,0.00115430,0.
 00043833,-0.00226148,-0.00115505,0.42467559,0.01983509,0.01312719,-0.0
 0000288,0.00020547,0.00274392,-0.00231604,0.00065237,-0.00056219,-0.00
 008067,-0.00009651,-0.00052990,0.00055348,0.00015432,0.00004727,0.0001
 9680,0.00020763,0.00274467,0.00231456,0.00065314,-0.00056215,0.0000806
 9,0.00015428,0.00004769,-0.00019687,-0.00009653,-0.00052977,-0.0005532
 3,0.00392804,-0.00304361,0.00000070,0.00019718,0.00005277,-0.00025998,
 0.00019722,0.00005307,0.00025994,0.00115908,0.00163784,-0.00000064,-0.
 06606775,-0.15072789,0.00000869,-0.01710908,-0.01659748,0.00147883,-0.
 01710889,-0.01659637,-0.00147638,0.02853393,0.54078904,0.00000180,-0.0
 0000160,-0.00263211,-0.00000101,-0.00168550,0.00070956,-0.00069350,0.0
 0115923,0.00055771,0.00043193,0.00052848,-0.00033549,-0.00030491,-0.00
 036812,-0.00019103,0.00000009,0.00168656,0.00070806,0.00069207,-0.0011
 5970,0.00056023,0.00030637,0.00036902,-0.00019171,-0.00043241,-0.00052
 903,-0.00033526,0.00000034,-0.00000050,-0.00040132,-0.00018526,-0.0002
 2346,0.00021711,0.00018511,0.00022377,0.00021652,0.00000014,0.00000023
 ,0.00073804,-0.00000026,0.00000693,-0.08768788,-0.02142080,-0.02293975
 ,0.00121243,0.02142261,0.02294085,0.00120922,0.00003575,-0.00000885,0.
 60690426,0.00097568,0.00045001,0.00009179,-0.00012085,-0.00014194,-0.0
 0000700,0.00004898,0.00010163,-0.00006051,0.00000146,0.00005799,-0.000
 00275,0.00009919,-0.00003313,0.00012390,-0.00121560,0.00012420,-0.0000
 6491,-0.00204606,0.00052447,0.00046594,-0.00012640,-0.00003193,0.00016
 125,0.00008998,0.00008540,0.00012148,-0.00003943,-0.00004072,0.0001057
 2,0.00004919,-0.00001669,-0.00002981,0.00015034,0.00012197,0.00010959,
 -0.00007657,0.00013099,0.00008240,0.00064617,-0.01698081,-0.02368817,-
 0.00405069,-0.00317000,0.00073834,0.00098420,0.00101230,0.00047001,-0.
 04952285,-0.00577162,-0.00022870,0.06170342,-0.00011329,0.00001498,-0.
 00020318,-0.00010436,-0.00002683,0.00008786,-0.00011090,0.00004367,0.0
 0001229,-0.00001186,0.00001825,-0.00006286,-0.00001296,-0.00009131,0.0
 0005592,0.00076302,-0.00050672,-0.00049797,0.00071198,0.00095614,-0.00
 022572,-0.00031592,-0.00020724,0.00016311,0.00020712,0.00032189,0.0002
 6313,-0.00015935,0.00002215,-0.00000875,0.00003885,-0.00004060,-0.0000
 3822,0.00006897,0.00009138,0.00012055,-0.00009059,0.00003639,0.0000689
 5,-0.00133784,-0.01299029,-0.01931986,-0.00238309,-0.00193935,0.000422
 89,0.00055200,0.00076416,-0.00013404,-0.00337945,-0.12966454,-0.112065
 65,-0.00467119,0.14662464,-0.00059490,-0.00050219,-0.00008579,-0.00027
 705,0.00003526,0.00000465,0.00009505,-0.00022209,-0.00027803,-0.000086
 10,-0.00005274,0.00005421,0.00020040,0.00017527,0.00009907,0.00078164,
 -0.00128649,-0.00024812,0.00063441,0.00067433,0.00006834,-0.00001141,-
 0.00000981,-0.00001645,0.00024595,0.00047936,0.00015544,-0.00026703,0.
 00011280,0.00005363,0.00003254,-0.00001481,-0.00001520,-0.00000613,0.0
 0004268,0.00003136,-0.00005440,-0.00008102,-0.00003708,0.00128037,0.00
 214036,0.00139130,0.00069343,0.00074593,0.00126540,-0.00044079,-0.0000
 6084,0.00100598,-0.00101188,-0.11522877,-0.23217993,-0.00341633,0.1296
 0307,0.24417464,0.00097588,0.00045135,-0.00009196,-0.00121605,0.000123
 65,0.00006362,-0.00204678,0.00052362,-0.00046684,0.00008993,0.00008549
 ,-0.00012137,-0.00012611,-0.00003196,-0.00016072,-0.00012064,-0.000142
 18,0.00000735,0.00004899,0.00010189,0.00006058,0.00009909,-0.00003335,
 -0.00012389,0.00000158,0.00005824,0.00000268,-0.00003909,-0.00004087,-
 0.00010575,0.00015033,0.00012183,-0.00010977,0.00004928,-0.00001660,0.
 00002992,-0.00007659,0.00013109,-0.00008245,0.00065402,-0.01698443,0.0
 2368618,0.00098378,0.00101205,-0.00046996,-0.00405080,-0.00317077,-0.0
 0073741,-0.04952237,-0.00573263,0.00016442,0.00372804,-0.00076041,-0.0
 0079044,0.06170501,-0.00011295,0.00001610,0.00020342,0.00076293,-0.000
 50733,0.00049836,0.00071090,0.00095744,0.00022510,0.00020715,0.0003220
 3,-0.00026326,-0.00031573,-0.00020714,-0.00016266,-0.00010531,-0.00002
 604,-0.00008778,-0.00011093,0.00004341,-0.00001192,-0.00001284,-0.0000
 9131,-0.00005583,-0.00001195,0.00001802,0.00006296,-0.00015946,0.00002
 211,0.00000854,0.00006900,0.00009133,-0.00012067,0.00003898,-0.0000405
 7,0.00003833,-0.00009063,0.00003645,-0.00006888,-0.00133010,-0.0129926
 5,0.01931876,0.00055192,0.00076409,0.00013343,-0.00238291,-0.00193932,
 -0.00042320,-0.00334089,-0.12970981,0.11208491,-0.00076641,0.01167018,
 -0.01617318,-0.00471648,0.14667311,0.00059430,0.00050230,-0.00008564,-
 0.00078123,0.00128566,-0.00024887,-0.00063563,-0.00067414,0.00006954,-
 0.00024571,-0.00047902,0.00015550,0.00001143,0.00000918,-0.00001654,0.
 00027710,-0.00003378,0.00000454,-0.00009474,0.00022137,-0.00027863,-0.
 00020053,-0.00017549,0.00009936,0.00008596,0.00005235,0.00005428,0.000
 26716,-0.00011268,0.00005337,0.00000615,-0.00004266,0.00003142,-0.0000
 3260,0.00001471,-0.00001521,0.00005442,0.00008098,-0.00003710,-0.00127
 915,-0.00213561,0.00138555,0.00044082,0.00006079,0.00100555,-0.0006920
 5,-0.00074481,0.00126575,0.00094731,0.11524727,-0.23212933,0.00078103,
 0.01618084,-0.02223922,0.00348033,-0.12962053,0.24411752,-0.00626940,-
 0.00580840,0.00000228,0.00011709,-0.00038961,0.00130816,0.00025334,-0.
 00047458,0.00009931,-0.00030372,-0.00008559,-0.00009551,0.00015305,0.0
 0007665,0.00010201,0.00011719,-0.00039084,-0.00130813,0.00025327,-0.00
 047443,-0.00009890,0.00015322,0.00007682,-0.00010237,-0.00030361,-0.00
 008532,0.00009550,-0.00109728,0.00222029,-0.00000054,0.00000794,0.0000
 3628,0.00006712,0.00000792,0.00003624,-0.00006718,-0.00049023,-0.00063
 975,0.00000025,-0.05043870,0.02093613,0.00000942,0.00153058,0.00230173
 ,-0.00061365,0.00153068,0.00229947,0.00061366,-0.16195442,0.07896873,0
 .00002621,-0.01246078,0.01160342,0.00247165,-0.01246940,0.01160989,-0.
 00246296,0.59630693,-0.00623889,-0.00213921,0.00000085,0.00007335,-0.0
 0122306,0.00071195,-0.00008029,0.00050035,0.00003374,0.00014390,0.0003
 1087,-0.00018946,-0.00008839,-0.00004280,-0.00008211,0.00007308,-0.001
 22377,-0.00071136,-0.00008004,0.00050037,-0.00003438,-0.00008854,-0.00
 004306,0.00008229,0.00014393,0.00031096,0.00018937,-0.00085154,0.00064
 827,-0.00000019,0.00003556,-0.00002799,0.00001035,0.00003560,-0.000028
 01,-0.00001035,-0.00021374,-0.00036932,0.00000011,-0.01138766,0.012647
 18,0.00000325,-0.00018697,0.00108048,0.00029082,-0.00018604,0.00108028
 ,-0.00029102,0.02456878,-0.11857581,-0.00001337,0.02831397,-0.01558810
 ,-0.00035155,0.02831863,-0.01559111,0.00033778,0.10307071,0.29372151,-
 0.00000006,0.00000070,0.00062112,-0.00011817,0.00056964,-0.00039127,0.
 00005330,-0.00047310,-0.00021589,-0.00014810,-0.00023619,0.00016036,0.
 00022631,0.00012439,0.00009562,0.00011872,-0.00056999,-0.00039052,-0.0
 0005299,0.00047322,-0.00021667,-0.00022670,-0.00012464,0.00009592,0.00
 014831,0.00023646,0.00016021,0.00000018,-0.00000018,0.00006826,-0.0000
 1997,-0.00004657,0.00000455,0.00001988,0.00004656,0.00000447,0.0000000
 8,0.,-0.00002671,0.00000803,-0.00000242,0.00328703,0.00125454,0.001315
 63,0.00020122,-0.00125572,-0.00131595,0.00020162,0.00001890,-0.0000212
 2,-0.05437726,0.02277649,-0.01428720,0.00689603,-0.02276392,0.01427873
 ,0.00690782,-0.00007269,0.00001738,0.03756968,-0.00027356,-0.00103689,
 0.00000052,0.00005743,-0.00028470,0.00014689,-0.00005925,0.00014019,-0
 .00001506,0.00006338,0.00007519,-0.00005334,-0.00005048,-0.00000516,-0
 .00004655,0.00005738,-0.00028487,-0.00014675,-0.00005922,0.00014025,0.
 00001493,-0.00005050,-0.00000519,0.00004660,0.00006341,0.00007525,0.00
 005331,-0.00024263,0.00016366,-0.00000005,-0.00001646,-0.00002194,0.00
 001214,-0.00001645,-0.00002195,-0.00001212,-0.00002100,-0.00012116,0.0
 0000003,-0.00431176,0.00523362,0.00000037,0.00041603,0.00024180,-0.000
 00348,0.00041608,0.00024129,0.00000363,-0.02285417,-0.02286347,0.00000
 002,0.00118258,-0.00049415,0.00052101,0.00118191,-0.00049418,-0.000521
 40,-0.35464365,-0.16537539,0.00003360,0.37916093,0.00115420,0.00130601
 ,-0.00000009,-0.00015211,0.00007369,-0.00008038,-0.00003376,0.00006730
 ,-0.00003505,0.00000922,0.00003012,-0.00003671,0.00000453,-0.00000439,
 0.00000704,-0.00015223,0.00007371,0.00008038,-0.00003378,0.00006741,0.
 00003499,0.00000448,-0.00000443,-0.00000700,0.00000925,0.00003018,0.00
 003676,0.00034660,-0.00017283,0.00000001,0.00001452,-0.00000490,-0.000
 02043,0.00001455,-0.00000488,0.00002044,0.00005928,0.00013199,-0.00000
 004,0.00194689,-0.00441060,-0.00000106,0.00037583,0.00007928,0.0004877
 6,0.00037537,0.00007907,-0.00048741,0.03484389,0.00585604,-0.00000446,
 0.00070152,0.00049113,-0.00002558,0.00070182,0.00049103,0.00002549,-0.
 22488786,-0.15594803,0.00001474,0.18469779,0.15177309,0.00000047,0.000
 00032,0.00065000,0.00008209,-0.00020476,0.00016528,-0.00004795,0.00007
 126,0.00005917,0.00003731,0.00001568,0.00000982,-0.00004653,-0.0000589
 6,0.00000372,-0.00008224,0.00020478,0.00016529,0.00004795,-0.00007123,
 0.00005921,0.00004656,0.00005899,0.00000366,-0.00003730,-0.00001565,0.
 00000980,-0.00000001,-0.00000008,0.00001474,0.00000679,0.00001281,-0.0
 0000257,-0.00000676,-0.00001279,-0.00000254,0.,0.00000004,0.00001440,0
 .00000030,-0.00000172,-0.00092856,-0.00022263,0.00022176,0.00010932,0.
 00022238,-0.00022175,0.00010914,0.00000787,0.00000457,-0.00257183,0.00
 147024,-0.00013515,-0.00010024,-0.00147059,0.00013538,-0.00009968,0.00
 002636,0.00000590,-0.00065559,-0.00003432,-0.00000940,0.00298746||-0.0
 0005855,-0.00000271,-0.00000016,0.00001896,-0.00003543,0.00007412,0.00
 000368,0.00000541,-0.00000470,-0.00000431,0.00000168,-0.00000289,0.000
 00176,0.00000263,-0.00000780,0.00001880,-0.00003530,-0.00007410,0.0000
 0361,0.00000521,0.00000486,0.00000172,0.00000271,0.00000782,-0.0000042
 2,0.00000178,0.00000286,0.00003795,0.00005881,-0.00000014,-0.00001143,
 -0.00000676,-0.00000399,-0.00001142,-0.00000668,0.00000397,-0.00001581
 ,-0.00001603,0.00000010,-0.00001101,0.00003549,0.00000048,0.00001092,0
 .00000295,-0.00000101,0.00001107,0.00000309,0.00000094,-0.00002013,0.0
 0003108,0.00000027,-0.00000454,-0.00000443,-0.00000308,-0.00000487,-0.
 00000496,0.00000276,0.00002881,-0.00004291,-0.00000088,0.00000902,0.00
 000437,0.00000056|||@
 The archive entry for this job was punched.


     ON THE SURVIVAL OF THE FITTEST -
 "STRONG REPRESENTATIVES FROM EACH PAST ERA THRIVE TODAY,
 SUCH AS PROGRAMMING IN THE THIRTY YEAR OLD LANGUAGE KNOWN
 AS FORTRAN, AND EVEN IN THE ANCIENT SCRIPT KNOWN AS DIRECT
 MACHINE CODE. SOME PEOPLE MIGHT LOOK ON SUCH RELICS AS LIVING
 FOSSILS; OTHERS WOULD POINT OUT THAT EVEN A VERY OLD SPECIES
 MIGHT STILL BE FILLING A PARTICULAR ECOLOGICAL NICHE."
     -- ALAN KAY, SCI.AM. SEPTEMBER 1984
 Job cpu time:       0 days  0 hours 10 minutes 19.0 seconds.
 Elapsed time:       0 days  0 hours 10 minutes 18.2 seconds.
 File lengths (MBytes):  RWF=     41 Int=      0 D2E=      0 Chk=      4 Scr=      1
 Normal termination of Gaussian 16 at Mon Mar 23 15:13:13 2026.
