 Entering Link 1 = C:\G16W\l1.exe PID=     68928.
  
 Copyright (c) 1988-2019, Gaussian, Inc.  All Rights Reserved.
  
 This is part of the Gaussian(R) 16 program.  It is based on
 the Gaussian(R) 09 system (copyright 2009, Gaussian, Inc.),
 the Gaussian(R) 03 system (copyright 2003, Gaussian, Inc.),
 the Gaussian(R) 98 system (copyright 1998, Gaussian, Inc.),
 the Gaussian(R) 94 system (copyright 1995, Gaussian, Inc.),
 the Gaussian 92(TM) system (copyright 1992, Gaussian, Inc.),
 the Gaussian 90(TM) system (copyright 1990, Gaussian, Inc.),
 the Gaussian 88(TM) system (copyright 1988, Gaussian, Inc.),
 the Gaussian 86(TM) system (copyright 1986, Carnegie Mellon
 University), and the Gaussian 82(TM) system (copyright 1983,
 Carnegie Mellon University). Gaussian is a federally registered
 trademark of Gaussian, Inc.
  
 This software contains proprietary and confidential information,
 including trade secrets, belonging to Gaussian, Inc.
  
 This software is provided under written license and may be
 used, copied, transmitted, or stored only in accord with that
 written license.
  
 The following legend is applicable only to US Government
 contracts under FAR:
  
                    RESTRICTED RIGHTS LEGEND
  
 Use, reproduction and disclosure by the US Government is
 subject to restrictions as set forth in subparagraphs (a)
 and (c) of the Commercial Computer Software - Restricted
 Rights clause in FAR 52.227-19.
  
 Gaussian, Inc.
 340 Quinnipiac St., Bldg. 40, Wallingford CT 06492
  
  
 ---------------------------------------------------------------
 Warning -- This program may not be used in any manner that
 competes with the business of Gaussian, Inc. or will provide
 assistance to any competitor of Gaussian, Inc.  The licensee
 of this program is prohibited from giving any competitor of
 Gaussian, Inc. access to this program.  By using this program,
 the user acknowledges that Gaussian, Inc. is engaged in the
 business of creating and licensing software in the field of
 computational chemistry and represents and warrants to the
 licensee that it is not a competitor of Gaussian, Inc. and that
 it will not use this program in any manner prohibited above.
 ---------------------------------------------------------------
  

 Cite this work as:
 Gaussian 16, Revision C.01,
 M. J. Frisch, G. W. Trucks, H. B. Schlegel, G. E. Scuseria, 
 M. A. Robb, J. R. Cheeseman, G. Scalmani, V. Barone, 
 G. A. Petersson, H. Nakatsuji, X. Li, M. Caricato, A. V. Marenich, 
 J. Bloino, B. G. Janesko, R. Gomperts, B. Mennucci, H. P. Hratchian, 
 J. V. Ortiz, A. F. Izmaylov, J. L. Sonnenberg, D. Williams-Young, 
 F. Ding, F. Lipparini, F. Egidi, J. Goings, B. Peng, A. Petrone, 
 T. Henderson, D. Ranasinghe, V. G. Zakrzewski, J. Gao, N. Rega, 
 G. Zheng, W. Liang, M. Hada, M. Ehara, K. Toyota, R. Fukuda, 
 J. Hasegawa, M. Ishida, T. Nakajima, Y. Honda, O. Kitao, H. Nakai, 
 T. Vreven, K. Throssell, J. A. Montgomery, Jr., J. E. Peralta, 
 F. Ogliaro, M. J. Bearpark, J. J. Heyd, E. N. Brothers, K. N. Kudin, 
 V. N. Staroverov, T. A. Keith, R. Kobayashi, J. Normand, 
 K. Raghavachari, A. P. Rendell, J. C. Burant, S. S. Iyengar, 
 J. Tomasi, M. Cossi, J. M. Millam, M. Klene, C. Adamo, R. Cammi, 
 J. W. Ochterski, R. L. Martin, K. Morokuma, O. Farkas, 
 J. B. Foresman, and D. J. Fox, Gaussian, Inc., Wallingford CT, 2019.
 
 ******************************************
 Gaussian 16:  EM64W-G16RevC.01 30-May-2019
                23-Mar-2026 
 ******************************************
 %nprocshared=16
 Will use up to   16 processors via shared memory.
 %mem=64GB
 %chk=Glycerol.chk
 ----------------------------------------------------------------------
 #p opt freq b3lyp/6-31+g(d,p) empiricaldispersion=gd3bj geom=connectiv
 ity
 ----------------------------------------------------------------------
 1/18=20,19=15,26=3,38=1,57=2/1,3;
 2/9=110,12=2,17=6,18=5,40=1/2;
 3/5=1,6=6,7=111,11=2,25=1,30=1,71=1,74=-5,124=41/1,2,3;
 4//1;
 5/5=2,38=5/2;
 6/7=2,8=2,9=2,10=2,28=1/1;
 7//1,2,3,16;
 1/18=20,19=15,26=3/3(2);
 2/9=110/2;
 99//99;
 2/9=110/2;
 3/5=1,6=6,7=111,11=2,25=1,30=1,71=1,74=-5,124=41/1,2,3;
 4/5=5,16=3,69=1/1;
 5/5=2,38=5/2;
 7//1,2,3,16;
 1/18=20,19=15,26=3/3(-5);
 2/9=110/2;
 6/7=2,8=2,9=2,10=2,19=2,28=1/1;
 99/9=1/99;
 Leave Link    1 at Mon Mar 23 14:55:01 2026, MaxMem=  8589934592 cpu:               0.0 elap:               0.3
 (Enter C:\G16W\l101.exe)
 -------------------
 Title Card Required
 -------------------
 Symbolic Z-matrix:
 Charge =  0 Multiplicity = 1
 C                    -1.25803  -0.7434    0.18826 
 H                    -1.35358  -1.73259  -0.27634 
 H                    -1.26094  -0.84075   1.28089 
 C                     0.011    -0.0503   -0.27621 
 H                     0.00901   0.02316  -1.3715 
 C                     1.28708  -0.73124   0.19543 
 H                     1.39304  -1.72273  -0.24974 
 H                     1.27369  -0.8216    1.29018 
 O                     2.45215   0.02437  -0.23268 
 H                     2.31288   0.96568   0.00633 
 O                     0.07142   1.30001   0.28885 
 H                    -0.77079   1.76483   0.10582 
 O                    -2.3513    0.13578  -0.2444 
 H                    -3.22175  -0.16757   0.07533 
 
 ITRead=  0  0  0  0  0  0  0  0  0  0  0  0  0  0
 MicOpt= -1 -1 -1 -1 -1 -1 -1 -1 -1 -1 -1 -1 -1 -1
 NAtoms=     14 NQM=       14 NQMF=       0 NMMI=      0 NMMIF=      0
                NMic=       0 NMicF=      0.
                    Isotopes and Nuclear Properties:
 (Nuclear quadrupole moments (NQMom) in fm**2, nuclear magnetic moments (NMagM)
  in nuclear magnetons)

  Atom         1           2           3           4           5           6           7           8           9          10
 IAtWgt=          12           1           1          12           1          12           1           1          16           1
 AtmWgt=  12.0000000   1.0078250   1.0078250  12.0000000   1.0078250  12.0000000   1.0078250   1.0078250  15.9949146   1.0078250
 NucSpn=           0           1           1           0           1           0           1           1           0           1
 AtZEff=   0.0000000   0.0000000   0.0000000   0.0000000   0.0000000   0.0000000   0.0000000   0.0000000   0.0000000   0.0000000
 NQMom=    0.0000000   0.0000000   0.0000000   0.0000000   0.0000000   0.0000000   0.0000000   0.0000000   0.0000000   0.0000000
 NMagM=    0.0000000   2.7928460   2.7928460   0.0000000   2.7928460   0.0000000   2.7928460   2.7928460   0.0000000   2.7928460
 AtZNuc=   6.0000000   1.0000000   1.0000000   6.0000000   1.0000000   6.0000000   1.0000000   1.0000000   8.0000000   1.0000000

  Atom        11          12          13          14
 IAtWgt=          16           1          16           1
 AtmWgt=  15.9949146   1.0078250  15.9949146   1.0078250
 NucSpn=           0           1           0           1
 AtZEff=   0.0000000   0.0000000   0.0000000   0.0000000
 NQMom=    0.0000000   0.0000000   0.0000000   0.0000000
 NMagM=    0.0000000   2.7928460   0.0000000   2.7928460
 AtZNuc=   8.0000000   1.0000000   8.0000000   1.0000000
 Leave Link  101 at Mon Mar 23 14:55:01 2026, MaxMem=  8589934592 cpu:               0.0 elap:               0.4
 (Enter C:\G16W\l103.exe)

 GradGradGradGradGradGradGradGradGradGradGradGradGradGradGradGradGradGrad
 Berny optimization.
 Initialization pass.
                           ----------------------------
                           !    Initial Parameters    !
                           ! (Angstroms and Degrees)  !
 --------------------------                            --------------------------
 ! Name  Definition              Value          Derivative Info.                !
 --------------------------------------------------------------------------------
 ! R1    R(1,2)                  1.097          estimate D2E/DX2                !
 ! R2    R(1,3)                  1.097          estimate D2E/DX2                !
 ! R3    R(1,4)                  1.5187         estimate D2E/DX2                !
 ! R4    R(1,13)                 1.4681         estimate D2E/DX2                !
 ! R5    R(4,5)                  1.0978         estimate D2E/DX2                !
 ! R6    R(4,6)                  1.5213         estimate D2E/DX2                !
 ! R7    R(4,11)                 1.465          estimate D2E/DX2                !
 ! R8    R(6,7)                  1.092          estimate D2E/DX2                !
 ! R9    R(6,8)                  1.0985         estimate D2E/DX2                !
 ! R10   R(6,9)                  1.4531         estimate D2E/DX2                !
 ! R11   R(9,10)                 0.9811         estimate D2E/DX2                !
 ! R12   R(11,12)                0.9792         estimate D2E/DX2                !
 ! R13   R(13,14)                0.9757         estimate D2E/DX2                !
 ! A1    A(2,1,3)              109.9731         estimate D2E/DX2                !
 ! A2    A(2,1,4)              110.7788         estimate D2E/DX2                !
 ! A3    A(2,1,13)             110.5065         estimate D2E/DX2                !
 ! A4    A(3,1,4)              110.3241         estimate D2E/DX2                !
 ! A5    A(3,1,13)             110.1639         estimate D2E/DX2                !
 ! A6    A(4,1,13)             105.0            estimate D2E/DX2                !
 ! A7    A(1,4,5)              109.5213         estimate D2E/DX2                !
 ! A8    A(1,4,6)              113.6908         estimate D2E/DX2                !
 ! A9    A(1,4,11)             109.7025         estimate D2E/DX2                !
 ! A10   A(5,4,6)              109.9253         estimate D2E/DX2                !
 ! A11   A(5,4,11)             108.8581         estimate D2E/DX2                !
 ! A12   A(6,4,11)             104.9743         estimate D2E/DX2                !
 ! A13   A(4,6,7)              111.1867         estimate D2E/DX2                !
 ! A14   A(4,6,8)              109.605          estimate D2E/DX2                !
 ! A15   A(4,6,9)              110.3914         estimate D2E/DX2                !
 ! A16   A(7,6,8)              109.4357         estimate D2E/DX2                !
 ! A17   A(7,6,9)              105.9155         estimate D2E/DX2                !
 ! A18   A(8,6,9)              110.251          estimate D2E/DX2                !
 ! A19   A(6,9,10)             108.2587         estimate D2E/DX2                !
 ! A20   A(4,11,12)            109.2665         estimate D2E/DX2                !
 ! A21   A(1,13,14)            112.4331         estimate D2E/DX2                !
 ! D1    D(2,1,4,5)             56.9244         estimate D2E/DX2                !
 ! D2    D(2,1,4,6)            -66.4713         estimate D2E/DX2                !
 ! D3    D(2,1,4,11)           176.3455         estimate D2E/DX2                !
 ! D4    D(3,1,4,5)            178.9392         estimate D2E/DX2                !
 ! D5    D(3,1,4,6)             55.5435         estimate D2E/DX2                !
 ! D6    D(3,1,4,11)           -61.6397         estimate D2E/DX2                !
 ! D7    D(13,1,4,5)           -62.3881         estimate D2E/DX2                !
 ! D8    D(13,1,4,6)           174.2162         estimate D2E/DX2                !
 ! D9    D(13,1,4,11)           57.033          estimate D2E/DX2                !
 ! D10   D(2,1,13,14)           65.9407         estimate D2E/DX2                !
 ! D11   D(3,1,13,14)          -55.7843         estimate D2E/DX2                !
 ! D12   D(4,1,13,14)         -174.5648         estimate D2E/DX2                !
 ! D13   D(1,4,6,7)             65.5191         estimate D2E/DX2                !
 ! D14   D(1,4,6,8)            -55.6048         estimate D2E/DX2                !
 ! D15   D(1,4,6,9)           -177.2329         estimate D2E/DX2                !
 ! D16   D(5,4,6,7)            -57.656          estimate D2E/DX2                !
 ! D17   D(5,4,6,8)           -178.7799         estimate D2E/DX2                !
 ! D18   D(5,4,6,9)             59.592          estimate D2E/DX2                !
 ! D19   D(11,4,6,7)          -174.5826         estimate D2E/DX2                !
 ! D20   D(11,4,6,8)            64.2935         estimate D2E/DX2                !
 ! D21   D(11,4,6,9)           -57.3345         estimate D2E/DX2                !
 ! D22   D(1,4,11,12)          -51.2632         estimate D2E/DX2                !
 ! D23   D(5,4,11,12)           68.5639         estimate D2E/DX2                !
 ! D24   D(6,4,11,12)         -173.7815         estimate D2E/DX2                !
 ! D25   D(4,6,9,10)            49.1575         estimate D2E/DX2                !
 ! D26   D(7,6,9,10)           169.6175         estimate D2E/DX2                !
 ! D27   D(8,6,9,10)           -72.0874         estimate D2E/DX2                !
 --------------------------------------------------------------------------------
 Trust Radius=3.00D-01 FncErr=1.00D-07 GrdErr=1.00D-06 EigMax=2.50D+02 EigMin=1.00D-04
 Number of steps in this run=     71 maximum allowed number of steps=    100.
 GradGradGradGradGradGradGradGradGradGradGradGradGradGradGradGradGradGrad

 Leave Link  103 at Mon Mar 23 14:55:01 2026, MaxMem=  8589934592 cpu:               0.0 elap:               0.3
 (Enter C:\G16W\l202.exe)
                          Input orientation:                          
 ---------------------------------------------------------------------
 Center     Atomic      Atomic             Coordinates (Angstroms)
 Number     Number       Type             X           Y           Z
 ---------------------------------------------------------------------
      1          6           0       -1.258030   -0.743399    0.188257
      2          1           0       -1.353575   -1.732588   -0.276340
      3          1           0       -1.260937   -0.840750    1.280889
      4          6           0        0.011002   -0.050301   -0.276206
      5          1           0        0.009007    0.023161   -1.371497
      6          6           0        1.287078   -0.731239    0.195430
      7          1           0        1.393044   -1.722734   -0.249739
      8          1           0        1.273690   -0.821602    1.290175
      9          8           0        2.452146    0.024365   -0.232680
     10          1           0        2.312880    0.965676    0.006332
     11          8           0        0.071415    1.300010    0.288846
     12          1           0       -0.770789    1.764833    0.105816
     13          8           0       -2.351296    0.135776   -0.244396
     14          1           0       -3.221745   -0.167572    0.075327
 ---------------------------------------------------------------------
                    Distance matrix (angstroms):
                    1          2          3          4          5
     1  C    0.000000
     2  H    1.097030   0.000000
     3  H    1.096964   1.796919   0.000000
     4  C    1.518734   2.166139   2.160366   0.000000
     5  H    2.150774   2.477631   3.065004   1.097754   0.000000
     6  C    2.545147   2.863270   2.771749   1.521344   2.158204
     7  H    2.859918   2.746765   3.188155   2.169740   2.494403
     8  H    2.762236   3.191612   2.534716   2.154724   3.065542
     9  O    3.812093   4.191933   4.101987   2.442673   2.695521
    10  H    3.963008   4.561077   4.202361   2.531932   2.845097
    11  O    2.439890   3.398041   2.709643   1.465016   2.095466
    12  H    2.556448   3.566180   2.900018   2.012921   2.413288
    13  O    1.468117   2.118313   2.113996   2.369829   2.618028
    14  H    2.049514   2.462317   2.398190   3.253918   3.545058
                    6          7          8          9         10
     6  C    0.000000
     7  H    1.092001   0.000000
     8  H    1.098550   1.788189   0.000000
     9  O    1.453134   2.043121   2.103213   0.000000
    10  H    1.991871   2.852932   2.433625   0.981116   0.000000
    11  O    2.369079   3.342717   2.636164   2.750843   2.283804
    12  H    3.236236   4.119674   3.503177   3.678467   3.187093
    13  O    3.766023   4.180212   4.051173   4.804748   4.744063
    14  H    4.545507   4.880622   4.702398   5.685486   5.649875
                   11         12         13         14
    11  O    0.000000
    12  H    0.979218   0.000000
    13  O    2.740313   2.296623   0.000000
    14  H    3.611688   3.121266   0.975666   0.000000
 Stoichiometry    C3H8O3
 Framework group  C1[X(C3H8O3)]
 Deg. of freedom    36
 Full point group                 C1      NOp   1
 Largest Abelian subgroup         C1      NOp   1
 Largest concise Abelian subgroup C1      NOp   1
                         Standard orientation:                         
 ---------------------------------------------------------------------
 Center     Atomic      Atomic             Coordinates (Angstroms)
 Number     Number       Type             X           Y           Z
 ---------------------------------------------------------------------
      1          6           0       -1.258030   -0.743399    0.188257
      2          1           0       -1.353575   -1.732588   -0.276340
      3          1           0       -1.260937   -0.840750    1.280889
      4          6           0        0.011002   -0.050301   -0.276206
      5          1           0        0.009007    0.023161   -1.371497
      6          6           0        1.287078   -0.731239    0.195430
      7          1           0        1.393044   -1.722734   -0.249739
      8          1           0        1.273690   -0.821602    1.290175
      9          8           0        2.452146    0.024365   -0.232680
     10          1           0        2.312880    0.965676    0.006332
     11          8           0        0.071415    1.300010    0.288846
     12          1           0       -0.770789    1.764833    0.105816
     13          8           0       -2.351296    0.135776   -0.244396
     14          1           0       -3.221745   -0.167572    0.075327
 ---------------------------------------------------------------------
 Rotational constants (GHZ):           8.1272000           1.9638935           1.6907067
 Leave Link  202 at Mon Mar 23 14:55:02 2026, MaxMem=  8589934592 cpu:               0.0 elap:               0.2
 (Enter C:\G16W\l301.exe)
 Standard basis: 6-31+G(d,p) (6D, 7F)
 Ernie: Thresh=  0.10000D-02 Tol=  0.10000D-05 Strict=F.
 There are   154 symmetry adapted cartesian basis functions of A   symmetry.
 There are   154 symmetry adapted basis functions of A   symmetry.
   154 basis functions,   248 primitive gaussians,   154 cartesian basis functions
    25 alpha electrons       25 beta electrons
       nuclear repulsion energy       259.2299966355 Hartrees.
 IExCor=  402 DFT=T Ex+Corr=B3LYP ExCW=0 ScaHFX=  0.200000
 ScaDFX=  0.800000  0.720000  1.000000  0.810000 ScalE2=  1.000000  1.000000
 IRadAn=      5 IRanWt=     -1 IRanGd=            0 ICorTp=0 IEmpDi=141
 NAtoms=   14 NActive=   14 NUniq=   14 SFac= 1.00D+00 NAtFMM=   60 NAOKFM=F Big=F
 Integral buffers will be    131072 words long.
 Raffenetti 2 integral format.
 Two-electron integral symmetry is turned on.
 R6Disp:  Grimme-D3(BJ) Dispersion energy=       -0.0158635391 Hartrees.
 Nuclear repulsion after empirical dispersion term =      259.2141330964 Hartrees.
 Leave Link  301 at Mon Mar 23 14:55:02 2026, MaxMem=  8589934592 cpu:               0.0 elap:               0.2
 (Enter C:\G16W\l302.exe)
 NPDir=0 NMtPBC=     1 NCelOv=     1 NCel=       1 NClECP=     1 NCelD=      1
         NCelK=      1 NCelE2=     1 NClLst=     1 CellRange=     0.0.
 One-electron integrals computed using PRISM.
 One-electron integral symmetry used in STVInt
 NBasis=   154 RedAO= T EigKep=  6.18D-05  NBF=   154
 NBsUse=   154 1.00D-06 EigRej= -1.00D+00 NBFU=   154
 Precomputing XC quadrature grid using
 IXCGrd= 4 IRadAn=           5 IRanWt=          -1 IRanGd=           0 AccXCQ= 0.00D+00.
 Generated NRdTot=       0 NPtTot=           0 NUsed=           0 NTot=          32
 NSgBfM=   154   154   154   154   154 MxSgAt=    14 MxSgA2=    14.
 Leave Link  302 at Mon Mar 23 14:55:03 2026, MaxMem=  8589934592 cpu:               1.0 elap:               0.5
 (Enter C:\G16W\l303.exe)
 DipDrv:  MaxL=1.
 Leave Link  303 at Mon Mar 23 14:55:03 2026, MaxMem=  8589934592 cpu:               0.0 elap:               0.3
 (Enter C:\G16W\l401.exe)
 ExpMin= 4.38D-02 ExpMax= 5.48D+03 ExpMxC= 8.25D+02 IAcc=3 IRadAn=         5 AccDes= 0.00D+00
 Harris functional with IExCor=  402 and IRadAn=       5 diagonalized for initial guess.
 HarFok:  IExCor=  402 AccDes= 0.00D+00 IRadAn=         5 IDoV= 1 UseB2=F ITyADJ=14
 ICtDFT=  3500011 ScaDFX=  1.000000  1.000000  1.000000  1.000000
 FoFCou: FMM=F IPFlag=           0 FMFlag=      100000 FMFlg1=           0
         NFxFlg=           0 DoJE=T BraDBF=F KetDBF=T FulRan=T
         wScrn=  0.000000 ICntrl=       500 IOpCl=  0 I1Cent=   200000004 NGrid=           0
         NMat0=    1 NMatS0=      1 NMatT0=    0 NMatD0=    1 NMtDS0=    0 NMtDT0=    0
 Petite list used in FoFCou.
 Harris En= -344.843679778382    
 JPrj=0 DoOrth=F DoCkMO=F.
 Leave Link  401 at Mon Mar 23 14:55:04 2026, MaxMem=  8589934592 cpu:               1.0 elap:               0.8
 (Enter C:\G16W\l502.exe)
 Integral symmetry usage will be decided dynamically.
 Closed shell SCF:
 Using DIIS extrapolation, IDIIS=  1040.
 NGot=  8589934592 LenX=  8589882642 LenY=  8589858485
 Requested convergence on RMS density matrix=1.00D-08 within 128 cycles.
 Requested convergence on MAX density matrix=1.00D-06.
 Requested convergence on             energy=1.00D-06.
 No special actions if energy rises.
 Fock matrices will be formed incrementally for  20 cycles.

 Cycle   1  Pass 1  IDiag  1:
 FoFJK:  IHMeth= 1 ICntrl=       0 DoSepK=F KAlg= 0 I1Cent=           0 FoldK=F
 IRaf= 970000000 NMat=       1 IRICut=       1 DoRegI=T DoRafI=F ISym2E= 0 IDoP0=0 IntGTp=1.
 FoFCou: FMM=F IPFlag=           0 FMFlag=      100000 FMFlg1=           0
         NFxFlg=           0 DoJE=F BraDBF=F KetDBF=F FulRan=T
         wScrn=  0.000000 ICntrl=         0 IOpCl=  0 I1Cent=           0 NGrid=           0
         NMat0=    1 NMatS0=      1 NMatT0=    0 NMatD0=    1 NMtDS0=    0 NMtDT0=    0
 Symmetry not used in FoFCou.
 E= -344.674103199778    
 DIIS: error= 2.70D-02 at cycle   1 NSaved=   1.
 NSaved= 1 IEnMin= 1 EnMin= -344.674103199778     IErMin= 1 ErrMin= 2.70D-02
 ErrMax= 2.70D-02  0.00D+00 EMaxC= 1.00D-01 BMatC= 1.86D-01 BMatP= 1.86D-01
 IDIUse=3 WtCom= 7.30D-01 WtEn= 2.70D-01
 Coeff-Com:  0.100D+01
 Coeff-En:   0.100D+01
 Coeff:      0.100D+01
 Gap=     0.221 Goal=   None    Shift=    0.000
 GapD=    0.221 DampG=1.000 DampE=0.500 DampFc=0.5000 IDamp=-1.
 Damping current iteration by 5.00D-01
 RMSDP=1.25D-02 MaxDP=6.82D-01              OVMax= 1.69D-01

 Cycle   2  Pass 1  IDiag  1:
 RMSU=  6.24D-03    CP:  1.01D+00
 E= -344.720605618986     Delta-E=       -0.046502419208 Rises=F Damp=T
 DIIS: error= 7.86D-03 at cycle   2 NSaved=   2.
 NSaved= 2 IEnMin= 2 EnMin= -344.720605618986     IErMin= 2 ErrMin= 7.86D-03
 ErrMax= 7.86D-03  0.00D+00 EMaxC= 1.00D-01 BMatC= 2.22D-02 BMatP= 1.86D-01
 IDIUse=3 WtCom= 9.21D-01 WtEn= 7.86D-02
 Coeff-Com:  0.203D+00 0.797D+00
 Coeff-En:   0.323D+00 0.677D+00
 Coeff:      0.212D+00 0.788D+00
 Gap=     0.263 Goal=   None    Shift=    0.000
 RMSDP=3.88D-03 MaxDP=2.46D-01 DE=-4.65D-02 OVMax= 1.08D-01

 Cycle   3  Pass 1  IDiag  1:
 RMSU=  2.15D-03    CP:  9.87D-01  4.90D-01
 E= -344.825285224523     Delta-E=       -0.104679605537 Rises=F Damp=F
 DIIS: error= 4.23D-03 at cycle   3 NSaved=   3.
 NSaved= 3 IEnMin= 3 EnMin= -344.825285224523     IErMin= 3 ErrMin= 4.23D-03
 ErrMax= 4.23D-03  0.00D+00 EMaxC= 1.00D-01 BMatC= 5.21D-03 BMatP= 2.22D-02
 IDIUse=3 WtCom= 9.58D-01 WtEn= 4.23D-02
 Coeff-Com:  0.355D-01 0.323D+00 0.642D+00
 Coeff-En:   0.000D+00 0.000D+00 0.100D+01
 Coeff:      0.340D-01 0.309D+00 0.657D+00
 Gap=     0.264 Goal=   None    Shift=    0.000
 RMSDP=7.63D-04 MaxDP=2.79D-02 DE=-1.05D-01 OVMax= 1.59D-02

 Cycle   4  Pass 1  IDiag  1:
 RMSU=  7.19D-04    CP:  9.85D-01  4.53D-01  9.47D-01
 E= -344.828688970570     Delta-E=       -0.003403746047 Rises=F Damp=F
 DIIS: error= 2.05D-03 at cycle   4 NSaved=   4.
 NSaved= 4 IEnMin= 4 EnMin= -344.828688970570     IErMin= 4 ErrMin= 2.05D-03
 ErrMax= 2.05D-03  0.00D+00 EMaxC= 1.00D-01 BMatC= 1.20D-03 BMatP= 5.21D-03
 IDIUse=3 WtCom= 9.80D-01 WtEn= 2.05D-02
 Coeff-Com: -0.430D-03 0.749D-01 0.351D+00 0.575D+00
 Coeff-En:   0.000D+00 0.000D+00 0.193D+00 0.807D+00
 Coeff:     -0.421D-03 0.733D-01 0.347D+00 0.580D+00
 Gap=     0.262 Goal=   None    Shift=    0.000
 RMSDP=3.39D-04 MaxDP=1.39D-02 DE=-3.40D-03 OVMax= 5.96D-03

 Cycle   5  Pass 1  IDiag  1:
 RMSU=  1.57D-04    CP:  9.85D-01  4.73D-01  9.59D-01  6.20D-01
 E= -344.829792533699     Delta-E=       -0.001103563129 Rises=F Damp=F
 DIIS: error= 2.10D-04 at cycle   5 NSaved=   5.
 NSaved= 5 IEnMin= 5 EnMin= -344.829792533699     IErMin= 5 ErrMin= 2.10D-04
 ErrMax= 2.10D-04  0.00D+00 EMaxC= 1.00D-01 BMatC= 2.12D-05 BMatP= 1.20D-03
 IDIUse=3 WtCom= 9.98D-01 WtEn= 2.10D-03
 Coeff-Com: -0.218D-02 0.539D-02 0.770D-01 0.193D+00 0.727D+00
 Coeff-En:   0.000D+00 0.000D+00 0.000D+00 0.000D+00 0.100D+01
 Coeff:     -0.217D-02 0.538D-02 0.768D-01 0.192D+00 0.728D+00
 Gap=     0.262 Goal=   None    Shift=    0.000
 RMSDP=7.36D-05 MaxDP=2.49D-03 DE=-1.10D-03 OVMax= 7.60D-04

 Cycle   6  Pass 1  IDiag  1:
 RMSU=  4.39D-05    CP:  9.85D-01  4.68D-01  9.74D-01  6.36D-01  7.73D-01
 E= -344.829809789147     Delta-E=       -0.000017255448 Rises=F Damp=F
 DIIS: error= 4.69D-05 at cycle   6 NSaved=   6.
 NSaved= 6 IEnMin= 6 EnMin= -344.829809789147     IErMin= 6 ErrMin= 4.69D-05
 ErrMax= 4.69D-05  0.00D+00 EMaxC= 1.00D-01 BMatC= 1.04D-06 BMatP= 2.12D-05
 IDIUse=1 WtCom= 1.00D+00 WtEn= 0.00D+00
 Coeff-Com: -0.848D-03 0.688D-03 0.256D-01 0.715D-01 0.318D+00 0.585D+00
 Coeff:     -0.848D-03 0.688D-03 0.256D-01 0.715D-01 0.318D+00 0.585D+00
 Gap=     0.262 Goal=   None    Shift=    0.000
 RMSDP=1.01D-05 MaxDP=2.85D-04 DE=-1.73D-05 OVMax= 2.22D-04

 Cycle   7  Pass 1  IDiag  1:
 RMSU=  6.19D-06    CP:  9.85D-01  4.68D-01  9.73D-01  6.37D-01  7.99D-01
                    CP:  8.58D-01
 E= -344.829810669016     Delta-E=       -0.000000879868 Rises=F Damp=F
 DIIS: error= 1.50D-05 at cycle   7 NSaved=   7.
 NSaved= 7 IEnMin= 7 EnMin= -344.829810669016     IErMin= 7 ErrMin= 1.50D-05
 ErrMax= 1.50D-05  0.00D+00 EMaxC= 1.00D-01 BMatC= 7.57D-08 BMatP= 1.04D-06
 IDIUse=1 WtCom= 1.00D+00 WtEn= 0.00D+00
 Coeff-Com: -0.145D-03-0.181D-03 0.441D-02 0.145D-01 0.748D-01 0.255D+00
 Coeff-Com:  0.651D+00
 Coeff:     -0.145D-03-0.181D-03 0.441D-02 0.145D-01 0.748D-01 0.255D+00
 Coeff:      0.651D+00
 Gap=     0.262 Goal=   None    Shift=    0.000
 RMSDP=3.42D-06 MaxDP=1.41D-04 DE=-8.80D-07 OVMax= 5.21D-05

 Cycle   8  Pass 1  IDiag  1:
 RMSU=  1.86D-06    CP:  9.85D-01  4.68D-01  9.73D-01  6.39D-01  8.03D-01
                    CP:  8.56D-01  8.11D-01
 E= -344.829810731286     Delta-E=       -0.000000062270 Rises=F Damp=F
 DIIS: error= 4.17D-06 at cycle   8 NSaved=   8.
 NSaved= 8 IEnMin= 8 EnMin= -344.829810731286     IErMin= 8 ErrMin= 4.17D-06
 ErrMax= 4.17D-06  0.00D+00 EMaxC= 1.00D-01 BMatC= 5.62D-09 BMatP= 7.57D-08
 IDIUse=1 WtCom= 1.00D+00 WtEn= 0.00D+00
 Coeff-Com: -0.732D-05-0.132D-03 0.501D-03 0.242D-02 0.145D-01 0.782D-01
 Coeff-Com:  0.286D+00 0.619D+00
 Coeff:     -0.732D-05-0.132D-03 0.501D-03 0.242D-02 0.145D-01 0.782D-01
 Coeff:      0.286D+00 0.619D+00
 Gap=     0.262 Goal=   None    Shift=    0.000
 RMSDP=1.10D-06 MaxDP=3.52D-05 DE=-6.23D-08 OVMax= 2.31D-05

 Cycle   9  Pass 1  IDiag  1:
 RMSU=  6.61D-07    CP:  9.85D-01  4.68D-01  9.73D-01  6.39D-01  8.02D-01
                    CP:  8.66D-01  8.30D-01  7.70D-01
 E= -344.829810734518     Delta-E=       -0.000000003233 Rises=F Damp=F
 DIIS: error= 2.39D-06 at cycle   9 NSaved=   9.
 NSaved= 9 IEnMin= 9 EnMin= -344.829810734518     IErMin= 9 ErrMin= 2.39D-06
 ErrMax= 2.39D-06  0.00D+00 EMaxC= 1.00D-01 BMatC= 1.70D-09 BMatP= 5.62D-09
 IDIUse=1 WtCom= 1.00D+00 WtEn= 0.00D+00
 Coeff-Com:  0.180D-04-0.577D-04-0.355D-03-0.662D-03-0.235D-02 0.105D-01
 Coeff-Com:  0.789D-01 0.383D+00 0.531D+00
 Coeff:      0.180D-04-0.577D-04-0.355D-03-0.662D-03-0.235D-02 0.105D-01
 Coeff:      0.789D-01 0.383D+00 0.531D+00
 Gap=     0.262 Goal=   None    Shift=    0.000
 RMSDP=3.19D-07 MaxDP=6.70D-06 DE=-3.23D-09 OVMax= 6.60D-06

 Cycle  10  Pass 1  IDiag  1:
 RMSU=  1.76D-07    CP:  9.85D-01  4.68D-01  9.73D-01  6.39D-01  8.02D-01
                    CP:  8.69D-01  8.42D-01  7.99D-01  7.02D-01
 E= -344.829810735787     Delta-E=       -0.000000001269 Rises=F Damp=F
 DIIS: error= 1.53D-07 at cycle  10 NSaved=  10.
 NSaved=10 IEnMin=10 EnMin= -344.829810735787     IErMin=10 ErrMin= 1.53D-07
 ErrMax= 1.53D-07  0.00D+00 EMaxC= 1.00D-01 BMatC= 9.17D-12 BMatP= 1.70D-09
 IDIUse=1 WtCom= 1.00D+00 WtEn= 0.00D+00
 Coeff-Com:  0.301D-05-0.603D-05-0.103D-03-0.225D-03-0.105D-02-0.209D-03
 Coeff-Com:  0.816D-02 0.667D-01 0.119D+00 0.807D+00
 Coeff:      0.301D-05-0.603D-05-0.103D-03-0.225D-03-0.105D-02-0.209D-03
 Coeff:      0.816D-02 0.667D-01 0.119D+00 0.807D+00
 Gap=     0.262 Goal=   None    Shift=    0.000
 RMSDP=5.08D-08 MaxDP=1.30D-06 DE=-1.27D-09 OVMax= 7.66D-07

 Cycle  11  Pass 1  IDiag  1:
 RMSU=  2.78D-08    CP:  9.85D-01  4.68D-01  9.73D-01  6.39D-01  8.02D-01
                    CP:  8.69D-01  8.43D-01  8.10D-01  6.96D-01  8.56D-01
 E= -344.829810735802     Delta-E=       -0.000000000015 Rises=F Damp=F
 DIIS: error= 3.98D-08 at cycle  11 NSaved=  11.
 NSaved=11 IEnMin=11 EnMin= -344.829810735802     IErMin=11 ErrMin= 3.98D-08
 ErrMax= 3.98D-08  0.00D+00 EMaxC= 1.00D-01 BMatC= 4.19D-13 BMatP= 9.17D-12
 IDIUse=1 WtCom= 1.00D+00 WtEn= 0.00D+00
 Coeff-Com: -0.342D-06 0.124D-05-0.120D-04-0.292D-04-0.160D-03-0.435D-03
 Coeff-Com: -0.105D-02 0.367D-03 0.738D-02 0.200D+00 0.794D+00
 Coeff:     -0.342D-06 0.124D-05-0.120D-04-0.292D-04-0.160D-03-0.435D-03
 Coeff:     -0.105D-02 0.367D-03 0.738D-02 0.200D+00 0.794D+00
 Gap=     0.262 Goal=   None    Shift=    0.000
 RMSDP=1.43D-08 MaxDP=4.50D-07 DE=-1.51D-11 OVMax= 1.60D-07

 Cycle  12  Pass 1  IDiag  1:
 RMSU=  6.55D-09    CP:  9.85D-01  4.68D-01  9.73D-01  6.39D-01  8.02D-01
                    CP:  8.69D-01  8.43D-01  8.08D-01  7.04D-01  8.94D-01
                    CP:  8.82D-01
 E= -344.829810735801     Delta-E=        0.000000000002 Rises=F Damp=F
 DIIS: error= 1.25D-08 at cycle  12 NSaved=  12.
 NSaved=12 IEnMin=11 EnMin= -344.829810735802     IErMin=12 ErrMin= 1.25D-08
 ErrMax= 1.25D-08  0.00D+00 EMaxC= 1.00D-01 BMatC= 5.02D-14 BMatP= 4.19D-13
 IDIUse=1 WtCom= 1.00D+00 WtEn= 0.00D+00
 Coeff-Com: -0.291D-06 0.791D-06-0.222D-05-0.649D-05-0.382D-04-0.194D-03
 Coeff-Com: -0.774D-03-0.216D-02-0.787D-03 0.654D-01 0.361D+00 0.577D+00
 Coeff:     -0.291D-06 0.791D-06-0.222D-05-0.649D-05-0.382D-04-0.194D-03
 Coeff:     -0.774D-03-0.216D-02-0.787D-03 0.654D-01 0.361D+00 0.577D+00
 Gap=     0.262 Goal=   None    Shift=    0.000
 RMSDP=2.73D-09 MaxDP=6.73D-08 DE= 1.82D-12 OVMax= 5.60D-08

 SCF Done:  E(RB3LYP) =  -344.829810736     A.U. after   12 cycles
            NFock= 12  Conv=0.27D-08     -V/T= 2.0099
 KE= 3.414544534074D+02 PE=-1.326119174067D+03 EE= 3.806207768273D+02
 Leave Link  502 at Mon Mar 23 14:55:13 2026, MaxMem=  8589934592 cpu:               8.0 elap:               8.2
 (Enter C:\G16W\l601.exe)
 Copying SCF densities to generalized density rwf, IOpCl= 0 IROHF=0.

 **********************************************************************

            Population analysis using the SCF Density.

 **********************************************************************

 Orbital symmetries:
       Occupied  (A) (A) (A) (A) (A) (A) (A) (A) (A) (A) (A) (A)
                 (A) (A) (A) (A) (A) (A) (A) (A) (A) (A) (A) (A)
                 (A)
       Virtual   (A) (A) (A) (A) (A) (A) (A) (A) (A) (A) (A) (A)
                 (A) (A) (A) (A) (A) (A) (A) (A) (A) (A) (A) (A)
                 (A) (A) (A) (A) (A) (A) (A) (A) (A) (A) (A) (A)
                 (A) (A) (A) (A) (A) (A) (A) (A) (A) (A) (A) (A)
                 (A) (A) (A) (A) (A) (A) (A) (A) (A) (A) (A) (A)
                 (A) (A) (A) (A) (A) (A) (A) (A) (A) (A) (A) (A)
                 (A) (A) (A) (A) (A) (A) (A) (A) (A) (A) (A) (A)
                 (A) (A) (A) (A) (A) (A) (A) (A) (A) (A) (A) (A)
                 (A) (A) (A) (A) (A) (A) (A) (A) (A) (A) (A) (A)
                 (A) (A) (A) (A) (A) (A) (A) (A) (A) (A) (A) (A)
                 (A) (A) (A) (A) (A) (A) (A) (A) (A)
 The electronic state is 1-A.
 Alpha  occ. eigenvalues --  -19.18115 -19.16449 -19.15297 -10.25860 -10.25315
 Alpha  occ. eigenvalues --  -10.24346  -1.04215  -1.02100  -0.99998  -0.78208
 Alpha  occ. eigenvalues --   -0.68895  -0.60896  -0.54882  -0.52182  -0.49247
 Alpha  occ. eigenvalues --   -0.47564  -0.44033  -0.41984  -0.41335  -0.37174
 Alpha  occ. eigenvalues --   -0.35656  -0.33657  -0.30535  -0.29131  -0.27699
 Alpha virt. eigenvalues --   -0.01494   0.01037   0.01725   0.02818   0.04769
 Alpha virt. eigenvalues --    0.05704   0.05968   0.07452   0.08364   0.11225
 Alpha virt. eigenvalues --    0.12043   0.12575   0.13716   0.16648   0.17371
 Alpha virt. eigenvalues --    0.17552   0.18142   0.19189   0.20413   0.21160
 Alpha virt. eigenvalues --    0.22243   0.22457   0.23889   0.24903   0.25764
 Alpha virt. eigenvalues --    0.26789   0.28008   0.28867   0.29903   0.30568
 Alpha virt. eigenvalues --    0.32331   0.32960   0.33923   0.35646   0.36422
 Alpha virt. eigenvalues --    0.38404   0.40203   0.57529   0.62860   0.65255
 Alpha virt. eigenvalues --    0.68065   0.71249   0.74838   0.75508   0.82036
 Alpha virt. eigenvalues --    0.84880   0.91122   0.92275   0.99374   0.99904
 Alpha virt. eigenvalues --    1.02507   1.03173   1.03766   1.04932   1.06619
 Alpha virt. eigenvalues --    1.15736   1.17476   1.20567   1.21427   1.24556
 Alpha virt. eigenvalues --    1.26327   1.28279   1.31737   1.33045   1.36495
 Alpha virt. eigenvalues --    1.41711   1.46868   1.53564   1.53904   1.56390
 Alpha virt. eigenvalues --    1.58702   1.60527   1.63028   1.65496   1.66862
 Alpha virt. eigenvalues --    1.73076   1.75208   1.83027   1.86871   1.88003
 Alpha virt. eigenvalues --    1.88441   1.91429   1.93891   1.97948   2.00638
 Alpha virt. eigenvalues --    2.02521   2.03774   2.06764   2.13048   2.16908
 Alpha virt. eigenvalues --    2.24765   2.27350   2.33918   2.35417   2.39005
 Alpha virt. eigenvalues --    2.43761   2.44249   2.49777   2.53368   2.59041
 Alpha virt. eigenvalues --    2.60141   2.63837   2.65517   2.66973   2.69694
 Alpha virt. eigenvalues --    2.73523   2.74409   2.79749   2.81094   2.88655
 Alpha virt. eigenvalues --    2.93365   2.96233   2.98839   3.00377   3.03523
 Alpha virt. eigenvalues --    3.28635   3.29809   3.35665   3.43861   3.46559
 Alpha virt. eigenvalues --    3.49812   3.51730   3.56547   4.22420   4.24840
 Alpha virt. eigenvalues --    4.32405   4.42498   4.54232   4.69875
          Condensed to atoms (all electrons):
               1          2          3          4          5          6
     1  C    5.567793   0.405113   0.447114  -0.234821   0.021554  -0.188510
     2  H    0.405113   0.607625  -0.049982  -0.050337  -0.004141  -0.003364
     3  H    0.447114  -0.049982   0.598117  -0.099334   0.005036   0.013151
     4  C   -0.234821  -0.050337  -0.099334   5.879263   0.322563   0.118478
     5  H    0.021554  -0.004141   0.005036   0.322563   0.599037  -0.037469
     6  C   -0.188510  -0.003364   0.013151   0.118478  -0.037469   5.213754
     7  H    0.016764   0.001562  -0.000243  -0.078359  -0.003886   0.430731
     8  H    0.040080  -0.000217   0.003838  -0.067028   0.005249   0.373521
     9  O    0.026201   0.000067   0.000039  -0.055812   0.000186   0.205018
    10  H    0.013846  -0.000012   0.000009  -0.034888  -0.000394  -0.006223
    11  O    0.002563   0.006021  -0.000376   0.125770  -0.052587  -0.073167
    12  H   -0.045244   0.000240  -0.000209   0.031834  -0.003696   0.010919
    13  O    0.116528  -0.046203  -0.054614  -0.047134   0.000019   0.020923
    14  H   -0.004269  -0.002883  -0.004436   0.013060   0.000001  -0.000612
               7          8          9         10         11         12
     1  C    0.016764   0.040080   0.026201   0.013846   0.002563  -0.045244
     2  H    0.001562  -0.000217   0.000067  -0.000012   0.006021   0.000240
     3  H   -0.000243   0.003838   0.000039   0.000009  -0.000376  -0.000209
     4  C   -0.078359  -0.067028  -0.055812  -0.034888   0.125770   0.031834
     5  H   -0.003886   0.005249   0.000186  -0.000394  -0.052587  -0.003696
     6  C    0.430731   0.373521   0.205018  -0.006223  -0.073167   0.010919
     7  H    0.582070  -0.043892  -0.057657   0.006139   0.008248  -0.000212
     8  H   -0.043892   0.614694  -0.054460  -0.003063  -0.002247  -0.000056
     9  O   -0.057657  -0.054460   8.226381   0.252479  -0.016018   0.001949
    10  H    0.006139  -0.003063   0.252479   0.388259   0.019106  -0.000340
    11  O    0.008248  -0.002247  -0.016018   0.019106   8.350679   0.239758
    12  H   -0.000212  -0.000056   0.001949  -0.000340   0.239758   0.376001
    13  O    0.000040  -0.000261  -0.000078   0.000018  -0.014609   0.012042
    14  H    0.000004   0.000013   0.000012   0.000000   0.000395  -0.000726
              13         14
     1  C    0.116528  -0.004269
     2  H   -0.046203  -0.002883
     3  H   -0.054614  -0.004436
     4  C   -0.047134   0.013060
     5  H    0.000019   0.000001
     6  C    0.020923  -0.000612
     7  H    0.000040   0.000004
     8  H   -0.000261   0.000013
     9  O   -0.000078   0.000012
    10  H    0.000018   0.000000
    11  O   -0.014609   0.000395
    12  H    0.012042  -0.000726
    13  O    8.384113   0.223739
    14  H    0.223739   0.416473
 Mulliken charges:
               1
     1  C   -0.184711
     2  H    0.136512
     3  H    0.141889
     4  C    0.176747
     5  H    0.148528
     6  C   -0.077149
     7  H    0.138691
     8  H    0.133831
     9  O   -0.528308
    10  H    0.365063
    11  O   -0.593537
    12  H    0.377739
    13  O   -0.594524
    14  H    0.359229
 Sum of Mulliken charges =   0.00000
 Mulliken charges with hydrogens summed into heavy atoms:
               1
     1  C    0.093690
     4  C    0.325275
     6  C    0.195373
     9  O   -0.163244
    11  O   -0.215798
    13  O   -0.235295
 Electronic spatial extent (au):  <R**2>=            706.6281
 Charge=              0.0000 electrons
 Dipole moment (field-independent basis, Debye):
    X=             -3.3681    Y=             -1.5253    Z=              0.9220  Tot=              3.8106
 Quadrupole moment (field-independent basis, Debye-Ang):
   XX=            -38.9337   YY=            -34.2901   ZZ=            -38.6870
   XY=              2.8221   XZ=             -0.8409   YZ=             -0.7967
 Traceless Quadrupole moment (field-independent basis, Debye-Ang):
   XX=             -1.6301   YY=              3.0135   ZZ=             -1.3834
   XY=              2.8221   XZ=             -0.8409   YZ=             -0.7967
 Octapole moment (field-independent basis, Debye-Ang**2):
  XXX=            -50.3290  YYY=              7.1724  ZZZ=              0.4657  XYY=             -0.3027
  XXY=              2.7750  XXZ=             11.9835  XZZ=             -0.4736  YZZ=              0.0001
  YYZ=             -1.9348  XYZ=              0.0261
 Hexadecapole moment (field-independent basis, Debye-Ang**3):
 XXXX=           -576.6381 YYYY=           -161.4284 ZZZZ=            -73.7600 XXXY=             39.6793
 XXXZ=             -7.9734 YYYX=             -5.8650 YYYZ=              3.1898 ZZZX=             -0.5780
 ZZZY=             -0.8521 XXYY=           -115.8511 XXZZ=           -123.7437 YYZZ=            -43.2838
 XXYZ=              0.8163 YYXZ=             -0.9680 ZZXY=              0.3166
 N-N= 2.592141330964D+02 E-N=-1.326119174092D+03  KE= 3.414544534074D+02
 No NMR shielding tensors so no spin-rotation constants.
 Leave Link  601 at Mon Mar 23 14:55:15 2026, MaxMem=  8589934592 cpu:               0.0 elap:               0.4
 (Enter C:\G16W\l701.exe)
 ... and contract with generalized density number  0.
 Compute integral first derivatives.
 R6Disp: Adding Grimme-D3(BJ) dispersion energy 1st derivatives to the gradient.
 Leave Link  701 at Mon Mar 23 14:55:17 2026, MaxMem=  8589934592 cpu:               1.0 elap:               0.4
 (Enter C:\G16W\l702.exe)
 L702 exits ... SP integral derivatives will be done elsewhere.
 Leave Link  702 at Mon Mar 23 14:55:18 2026, MaxMem=  8589934592 cpu:               0.0 elap:               0.3
 (Enter C:\G16W\l703.exe)
 Integral derivatives from FoFJK, PRISM(SPDF).
 Compute integral first derivatives, UseDBF=F ICtDFT=           0.
 Calling FoFJK, ICntrl=      2127 FMM=F ISym2X=0 I1Cent= 0 IOpClX= 0 NMat=1 NMatS=1 NMatT=0.
 FoFJK:  IHMeth= 1 ICntrl=    2127 DoSepK=F KAlg= 0 I1Cent=           0 FoldK=F
 IRaf=         0 NMat=       1 IRICut=       1 DoRegI=T DoRafI=F ISym2E= 0 IDoP0=0 IntGTp=1.
 FoFCou: FMM=F IPFlag=           0 FMFlag=      100000 FMFlg1=         800
         NFxFlg=           0 DoJE=F BraDBF=F KetDBF=F FulRan=T
         wScrn=  0.000000 ICntrl=      2127 IOpCl=  0 I1Cent=           0 NGrid=           0
         NMat0=    1 NMatS0=      1 NMatT0=    0 NMatD0=    1 NMtDS0=    0 NMtDT0=    0
 Symmetry not used in FoFCou.
 Leave Link  703 at Mon Mar 23 14:55:21 2026, MaxMem=  8589934592 cpu:               2.0 elap:               1.3
 (Enter C:\G16W\l716.exe)
 Dipole        =-1.32510115D+00-6.00113673D-01 3.62752459D-01
 ***** Axes restored to original set *****
 -------------------------------------------------------------------
 Center     Atomic                   Forces (Hartrees/Bohr)
 Number     Number              X              Y              Z
 -------------------------------------------------------------------
      1        6          -0.015321842    0.011287129   -0.004226301
      2        1          -0.000125416    0.000016007   -0.000083762
      3        1          -0.000242044    0.000011056   -0.000306576
      4        6          -0.001658924    0.018093877    0.007654237
      5        1           0.000104573   -0.000077828   -0.000021142
      6        6           0.013631841    0.014936483   -0.005174003
      7        1          -0.000276742   -0.000525081   -0.000200091
      8        1           0.000127728   -0.000238911   -0.000041778
      9        8          -0.011606413   -0.001359014    0.005917860
     10        1          -0.002596400   -0.012742412   -0.001262851
     11        8          -0.005824260   -0.009028145   -0.006027854
     12        1           0.007836296   -0.009470325   -0.000092793
     13        8           0.003918447   -0.010167550    0.004761650
     14        1           0.012033156   -0.000735287   -0.000896594
 -------------------------------------------------------------------
 Cartesian Forces:  Max     0.018093877 RMS     0.007134426
 Leave Link  716 at Mon Mar 23 14:55:22 2026, MaxMem=  8589934592 cpu:               0.0 elap:               0.2
 (Enter C:\G16W\l103.exe)

 GradGradGradGradGradGradGradGradGradGradGradGradGradGradGradGradGradGrad
 Berny optimization.
 FormGI is forming the generalized inverse of G from B-inverse, IUseBI=4.
 Internal  Forces:  Max     0.020090972 RMS     0.005487311
 Search for a local minimum.
 Step number   1 out of a maximum of   71
 All quantities printed in internal units (Hartrees-Bohrs-Radians)
 RMS Force = .54873D-02 SwitMx=.10000D-02 MixMth= 1
 Mixed Optimization -- RFO/linear search
 Second derivative matrix not updated -- first step.
 ITU=  0
     Eigenvalues ---    0.00484   0.00518   0.00791   0.00832   0.00989
     Eigenvalues ---    0.04214   0.05050   0.05105   0.05694   0.05774
     Eigenvalues ---    0.05899   0.07557   0.10675   0.11395   0.13297
     Eigenvalues ---    0.13753   0.16000   0.16000   0.16000   0.16695
     Eigenvalues ---    0.19345   0.21989   0.22063   0.30238   0.30489
     Eigenvalues ---    0.33843   0.33932   0.34013   0.34020   0.34582
     Eigenvalues ---    0.35967   0.36343   0.37837   0.51169   0.51537
     Eigenvalues ---    0.52236
 RFO step:  Lambda=-5.67797341D-03 EMin= 4.83609639D-03
 Linear search not attempted -- first point.
 Iteration  1 RMS(Cart)=  0.03543622 RMS(Int)=  0.00079059
 Iteration  2 RMS(Cart)=  0.00089884 RMS(Int)=  0.00001593
 Iteration  3 RMS(Cart)=  0.00000081 RMS(Int)=  0.00001591
 ITry= 1 IFail=0 DXMaxC= 1.15D-01 DCOld= 1.00D+10 DXMaxT= 3.00D-01 DXLimC= 3.00D+00 Rises=F
 Variable       Old X    -DE/DX   Delta X   Delta X   Delta X     New X
                                 (Linear)    (Quad)   (Total)
    R1        2.07309   0.00003   0.00000   0.00009   0.00009   2.07318
    R2        2.07296  -0.00031   0.00000  -0.00088  -0.00088   2.07208
    R3        2.86999  -0.00064   0.00000  -0.00205  -0.00205   2.86794
    R4        2.77434  -0.01955   0.00000  -0.05350  -0.05350   2.72084
    R5        2.07445   0.00002   0.00000   0.00005   0.00005   2.07450
    R6        2.87492  -0.00087   0.00000  -0.00283  -0.00283   2.87209
    R7        2.76848  -0.01933   0.00000  -0.05236  -0.05236   2.71612
    R8        2.06358   0.00053   0.00000   0.00151   0.00151   2.06509
    R9        2.07596  -0.00002   0.00000  -0.00007  -0.00007   2.07589
   R10        2.74603  -0.02009   0.00000  -0.05231  -0.05231   2.69371
   R11        1.85404  -0.01216   0.00000  -0.02351  -0.02351   1.83053
   R12        1.85045  -0.01122   0.00000  -0.02153  -0.02153   1.82892
   R13        1.84374  -0.01080   0.00000  -0.02045  -0.02045   1.82329
    A1        1.91939   0.00022   0.00000  -0.00182  -0.00183   1.91756
    A2        1.93346  -0.00056   0.00000  -0.00328  -0.00326   1.93020
    A3        1.92870  -0.00125   0.00000  -0.00836  -0.00835   1.92035
    A4        1.92552  -0.00036   0.00000   0.00091   0.00088   1.92640
    A5        1.92272  -0.00063   0.00000   0.00051   0.00047   1.92319
    A6        1.83260   0.00265   0.00000   0.01254   0.01253   1.84513
    A7        1.91151   0.00028   0.00000  -0.00215  -0.00219   1.90932
    A8        1.98428  -0.00129   0.00000  -0.00732  -0.00734   1.97694
    A9        1.91467   0.00020   0.00000   0.00272   0.00274   1.91741
   A10        1.91856   0.00004   0.00000  -0.00324  -0.00328   1.91528
   A11        1.89993  -0.00010   0.00000   0.00404   0.00405   1.90398
   A12        1.83215   0.00093   0.00000   0.00678   0.00679   1.83894
   A13        1.94057  -0.00076   0.00000  -0.00626  -0.00625   1.93432
   A14        1.91297  -0.00015   0.00000   0.00165   0.00162   1.91458
   A15        1.92669   0.00181   0.00000   0.00894   0.00892   1.93562
   A16        1.91001   0.00010   0.00000  -0.00265  -0.00265   1.90736
   A17        1.84857  -0.00062   0.00000  -0.00428  -0.00426   1.84431
   A18        1.92424  -0.00039   0.00000   0.00239   0.00235   1.92659
   A19        1.88947  -0.00883   0.00000  -0.05331  -0.05331   1.83616
   A20        1.90706  -0.00929   0.00000  -0.05608  -0.05608   1.85098
   A21        1.96233  -0.01000   0.00000  -0.06038  -0.06038   1.90194
    D1        0.99352   0.00001   0.00000   0.01628   0.01629   1.00980
    D2       -1.16014   0.00066   0.00000   0.02737   0.02736  -1.13278
    D3        3.07781   0.00017   0.00000   0.02158   0.02158   3.09939
    D4        3.12308  -0.00035   0.00000   0.01239   0.01238   3.13546
    D5        0.96942   0.00031   0.00000   0.02347   0.02345   0.99287
    D6       -1.07581  -0.00018   0.00000   0.01768   0.01767  -1.05814
    D7       -1.08888   0.00023   0.00000   0.02059   0.02060  -1.06827
    D8        3.04065   0.00089   0.00000   0.03167   0.03168   3.07232
    D9        0.99541   0.00039   0.00000   0.02588   0.02589   1.02131
   D10        1.15088  -0.00028   0.00000   0.00684   0.00686   1.15774
   D11       -0.97362   0.00070   0.00000   0.01432   0.01433  -0.95929
   D12       -3.04673  -0.00005   0.00000   0.00589   0.00587  -3.04086
   D13        1.14352  -0.00055   0.00000  -0.02532  -0.02530   1.11823
   D14       -0.97049  -0.00008   0.00000  -0.01903  -0.01901  -0.98949
   D15       -3.09330  -0.00066   0.00000  -0.02888  -0.02888  -3.12218
   D16       -1.00629  -0.00001   0.00000  -0.01477  -0.01477  -1.02106
   D17       -3.12030   0.00046   0.00000  -0.00848  -0.00848  -3.12878
   D18        1.04008  -0.00013   0.00000  -0.01833  -0.01835   1.02172
   D19       -3.04704  -0.00042   0.00000  -0.02160  -0.02160  -3.06864
   D20        1.12213   0.00005   0.00000  -0.01531  -0.01531   1.10682
   D21       -1.00068  -0.00053   0.00000  -0.02516  -0.02518  -1.02586
   D22       -0.89471  -0.00029   0.00000   0.00762   0.00763  -0.88708
   D23        1.19667   0.00010   0.00000   0.00909   0.00908   1.20575
   D24       -3.03306   0.00058   0.00000   0.01084   0.01084  -3.02222
   D25        0.85796   0.00024   0.00000  -0.00192  -0.00191   0.85605
   D26        2.96038  -0.00006   0.00000  -0.00709  -0.00709   2.95329
   D27       -1.25816  -0.00050   0.00000  -0.01144  -0.01145  -1.26961
         Item               Value     Threshold  Converged?
 Maximum Force            0.020091     0.000450     NO 
 RMS     Force            0.005487     0.000300     NO 
 Maximum Displacement     0.114575     0.001800     NO 
 RMS     Displacement     0.035396     0.001200     NO 
 Predicted change in Energy=-2.921570D-03
 Lowest energy point so far.  Saving SCF results.
 GradGradGradGradGradGradGradGradGradGradGradGradGradGradGradGradGradGrad

 Leave Link  103 at Mon Mar 23 14:55:22 2026, MaxMem=  8589934592 cpu:               0.0 elap:               0.3
 (Enter C:\G16W\l202.exe)
                          Input orientation:                          
 ---------------------------------------------------------------------
 Center     Atomic      Atomic             Coordinates (Angstroms)
 Number     Number       Type             X           Y           Z
 ---------------------------------------------------------------------
      1          6           0       -1.255841   -0.713957    0.184616
      2          1           0       -1.337548   -1.706703   -0.275123
      3          1           0       -1.269672   -0.806916    1.277077
      4          6           0        0.013665   -0.017849   -0.270409
      5          1           0        0.013795    0.061003   -1.365351
      6          6           0        1.281010   -0.716471    0.194022
      7          1           0        1.360841   -1.711944   -0.249683
      8          1           0        1.274087   -0.806741    1.288798
      9          8           0        2.439905   -0.008077   -0.238472
     10          1           0        2.280436    0.914870    0.008645
     11          8           0        0.076838    1.301672    0.295917
     12          1           0       -0.774165    1.718450    0.099000
     13          8           0       -2.340001    0.124502   -0.256543
     14          1           0       -3.169459   -0.228203    0.087721
 ---------------------------------------------------------------------
                    Distance matrix (angstroms):
                    1          2          3          4          5
     1  C    0.000000
     2  H    1.097079   0.000000
     3  H    1.096497   1.795425   0.000000
     4  C    1.517650   2.162875   2.159698   0.000000
     5  H    2.148241   2.477804   3.063168   1.097778   0.000000
     6  C    2.536870   2.838574   2.772574   1.519846   2.154517
     7  H    2.834011   2.698513   3.173274   2.164548   2.490500
     8  H    2.761949   3.174337   2.543785   2.154563   3.063630
     9  O    3.786266   4.141959   4.086073   2.426470   2.675937
    10  H    3.897345   4.476938   4.144482   2.466999   2.784711
    11  O    2.418921   3.372965   2.687360   1.437307   2.074378
    12  H    2.481117   3.491281   2.830347   1.942131   2.347836
    13  O    1.439804   2.087719   2.089291   2.358007   2.602661
    14  H    1.976684   2.381915   2.314880   3.210107   3.511149
                    6          7          8          9         10
     6  C    0.000000
     7  H    1.092801   0.000000
     8  H    1.098513   1.787133   0.000000
     9  O    1.425451   2.016846   2.080758   0.000000
    10  H    1.922105   2.795092   2.369700   0.968674   0.000000
    11  O    2.352299   3.320877   2.620043   2.754106   2.255656
    12  H    3.187728   4.055543   3.462303   3.664018   3.159824
    13  O    3.744591   4.131441   4.039421   4.781778   4.695044
    14  H    4.478435   4.779011   4.639224   5.623151   5.569042
                   11         12         13         14
    11  O    0.000000
    12  H    0.967825   0.000000
    13  O    2.744458   2.262503   0.000000
    14  H    3.594761   3.086587   0.964842   0.000000
 Stoichiometry    C3H8O3
 Framework group  C1[X(C3H8O3)]
 Deg. of freedom    36
 Full point group                 C1      NOp   1
 RotChk:  IX=0 Diff= 1.06D-02
 Largest Abelian subgroup         C1      NOp   1
 Largest concise Abelian subgroup C1      NOp   1
                         Standard orientation:                         
 ---------------------------------------------------------------------
 Center     Atomic      Atomic             Coordinates (Angstroms)
 Number     Number       Type             X           Y           Z
 ---------------------------------------------------------------------
      1          6           0       -1.253490   -0.719246    0.191706
      2          1           0       -1.331829   -1.715227   -0.261580
      3          1           0       -1.266082   -0.805236    1.284753
      4          6           0        0.013015   -0.021306   -0.268842
      5          1           0        0.011959    0.050510   -1.364268
      6          6           0        1.283360   -0.712156    0.199006
      7          1           0        1.366580   -1.710153   -0.238364
      8          1           0        1.277666   -0.795417    1.294345
      9          8           0        2.439226   -0.002202   -0.238998
     10          1           0        2.276482    0.921708    0.002321
     11          8           0        0.071677    1.302055    0.288946
     12          1           0       -0.781050    1.714354    0.090068
     13          8           0       -2.341158    0.112276   -0.253921
     14          1           0       -3.169002   -0.241327    0.093294
 ---------------------------------------------------------------------
 Rotational constants (GHZ):           8.2789153           1.9833973           1.7127758
 Leave Link  202 at Mon Mar 23 14:55:23 2026, MaxMem=  8589934592 cpu:               1.0 elap:               0.2
 (Enter C:\G16W\l301.exe)
 Standard basis: 6-31+G(d,p) (6D, 7F)
 Ernie: Thresh=  0.10000D-02 Tol=  0.10000D-05 Strict=F.
 There are   154 symmetry adapted cartesian basis functions of A   symmetry.
 There are   154 symmetry adapted basis functions of A   symmetry.
   154 basis functions,   248 primitive gaussians,   154 cartesian basis functions
    25 alpha electrons       25 beta electrons
       nuclear repulsion energy       261.5029327752 Hartrees.
 IExCor=  402 DFT=T Ex+Corr=B3LYP ExCW=0 ScaHFX=  0.200000
 ScaDFX=  0.800000  0.720000  1.000000  0.810000 ScalE2=  1.000000  1.000000
 IRadAn=      5 IRanWt=     -1 IRanGd=            0 ICorTp=0 IEmpDi=141
 NAtoms=   14 NActive=   14 NUniq=   14 SFac= 1.00D+00 NAtFMM=   60 NAOKFM=F Big=F
 Integral buffers will be    131072 words long.
 Raffenetti 2 integral format.
 Two-electron integral symmetry is turned on.
 R6Disp:  Grimme-D3(BJ) Dispersion energy=       -0.0160042254 Hartrees.
 Nuclear repulsion after empirical dispersion term =      261.4869285497 Hartrees.
 Leave Link  301 at Mon Mar 23 14:55:23 2026, MaxMem=  8589934592 cpu:               0.0 elap:               0.2
 (Enter C:\G16W\l302.exe)
 NPDir=0 NMtPBC=     1 NCelOv=     1 NCel=       1 NClECP=     1 NCelD=      1
         NCelK=      1 NCelE2=     1 NClLst=     1 CellRange=     0.0.
 One-electron integrals computed using PRISM.
 One-electron integral symmetry used in STVInt
 NBasis=   154 RedAO= T EigKep=  6.16D-05  NBF=   154
 NBsUse=   154 1.00D-06 EigRej= -1.00D+00 NBFU=   154
 Precomputing XC quadrature grid using
 IXCGrd= 4 IRadAn=           5 IRanWt=          -1 IRanGd=           0 AccXCQ= 0.00D+00.
 Generated NRdTot=       0 NPtTot=           0 NUsed=           0 NTot=          32
 NSgBfM=   154   154   154   154   154 MxSgAt=    14 MxSgA2=    14.
 Leave Link  302 at Mon Mar 23 14:55:23 2026, MaxMem=  8589934592 cpu:               0.0 elap:               0.4
 (Enter C:\G16W\l303.exe)
 DipDrv:  MaxL=1.
 Leave Link  303 at Mon Mar 23 14:55:24 2026, MaxMem=  8589934592 cpu:               1.0 elap:               0.3
 (Enter C:\G16W\l401.exe)
 Initial guess from the checkpoint file:  "Glycerol.chk"
 B after Tr=     0.000000    0.000000    0.000000
         Rot=    0.999995    0.003260   -0.000005   -0.000281 Ang=   0.37 deg.
 Guess basis will be translated and rotated to current coordinates.
 JPrj=2 DoOrth=T DoCkMO=T.
 Generating alternative initial guess.
 ExpMin= 4.38D-02 ExpMax= 5.48D+03 ExpMxC= 8.25D+02 IAcc=3 IRadAn=         5 AccDes= 0.00D+00
 Harris functional with IExCor=  402 and IRadAn=       5 diagonalized for initial guess.
 HarFok:  IExCor=  402 AccDes= 0.00D+00 IRadAn=         5 IDoV= 1 UseB2=F ITyADJ=14
 ICtDFT=  3500011 ScaDFX=  1.000000  1.000000  1.000000  1.000000
 FoFCou: FMM=F IPFlag=           0 FMFlag=      100000 FMFlg1=           0
         NFxFlg=           0 DoJE=T BraDBF=F KetDBF=T FulRan=T
         wScrn=  0.000000 ICntrl=       500 IOpCl=  0 I1Cent=   200000004 NGrid=           0
         NMat0=    1 NMatS0=      1 NMatT0=    0 NMatD0=    1 NMtDS0=    0 NMtDT0=    0
 Petite list used in FoFCou.
 Harris En= -344.846362221571    
 Leave Link  401 at Mon Mar 23 14:55:25 2026, MaxMem=  8589934592 cpu:               1.0 elap:               0.9
 (Enter C:\G16W\l502.exe)
 Integral symmetry usage will be decided dynamically.
 Closed shell SCF:
 Using DIIS extrapolation, IDIIS=  1040.
 NGot=  8589934592 LenX=  8589882642 LenY=  8589858485
 Requested convergence on RMS density matrix=1.00D-08 within 128 cycles.
 Requested convergence on MAX density matrix=1.00D-06.
 Requested convergence on             energy=1.00D-06.
 No special actions if energy rises.
 Fock matrices will be formed incrementally for  20 cycles.

 Cycle   1  Pass 1  IDiag  1:
 FoFJK:  IHMeth= 1 ICntrl=       0 DoSepK=F KAlg= 0 I1Cent=           0 FoldK=F
 IRaf= 970000000 NMat=       1 IRICut=       1 DoRegI=T DoRafI=F ISym2E= 0 IDoP0=0 IntGTp=1.
 FoFCou: FMM=F IPFlag=           0 FMFlag=      100000 FMFlg1=           0
         NFxFlg=           0 DoJE=F BraDBF=F KetDBF=F FulRan=T
         wScrn=  0.000000 ICntrl=         0 IOpCl=  0 I1Cent=           0 NGrid=           0
         NMat0=    1 NMatS0=      1 NMatT0=    0 NMatD0=    1 NMtDS0=    0 NMtDT0=    0
 Symmetry not used in FoFCou.
 E= -344.830467723944    
 DIIS: error= 1.93D-03 at cycle   1 NSaved=   1.
 NSaved= 1 IEnMin= 1 EnMin= -344.830467723944     IErMin= 1 ErrMin= 1.93D-03
 ErrMax= 1.93D-03  0.00D+00 EMaxC= 1.00D-01 BMatC= 1.57D-03 BMatP= 1.57D-03
 IDIUse=3 WtCom= 9.81D-01 WtEn= 1.93D-02
 Coeff-Com:  0.100D+01
 Coeff-En:   0.100D+01
 Coeff:      0.100D+01
 Gap=     0.694 Goal=   None    Shift=    0.000
 GapD=    0.694 DampG=2.000 DampE=1.000 DampFc=2.0000 IDamp=-1.
 RMSDP=8.75D-04 MaxDP=4.32D-02              OVMax= 1.18D-02

 Cycle   2  Pass 1  IDiag  1:
 RMSU=  8.63D-04    CP:  9.94D-01
 E= -344.832384257104     Delta-E=       -0.001916533161 Rises=F Damp=F
 DIIS: error= 7.39D-04 at cycle   2 NSaved=   2.
 NSaved= 2 IEnMin= 2 EnMin= -344.832384257104     IErMin= 2 ErrMin= 7.39D-04
 ErrMax= 7.39D-04  0.00D+00 EMaxC= 1.00D-01 BMatC= 1.63D-04 BMatP= 1.57D-03
 IDIUse=3 WtCom= 9.93D-01 WtEn= 7.39D-03
 Coeff-Com:  0.116D+00 0.884D+00
 Coeff-En:   0.000D+00 0.100D+01
 Coeff:      0.115D+00 0.885D+00
 Gap=     0.261 Goal=   None    Shift=    0.000
 RMSDP=1.85D-04 MaxDP=4.73D-03 DE=-1.92D-03 OVMax= 5.00D-03

 Cycle   3  Pass 1  IDiag  1:
 RMSU=  1.83D-04    CP:  9.94D-01  9.68D-01
 E= -344.832339144008     Delta-E=        0.000045113097 Rises=F Damp=F
 DIIS: error= 8.74D-04 at cycle   3 NSaved=   3.
 NSaved= 3 IEnMin= 2 EnMin= -344.832384257104     IErMin= 2 ErrMin= 7.39D-04
 ErrMax= 8.74D-04  0.00D+00 EMaxC= 1.00D-01 BMatC= 2.34D-04 BMatP= 1.63D-04
 IDIUse=3 WtCom= 2.53D-01 WtEn= 7.47D-01
 Coeff-Com: -0.207D-01 0.553D+00 0.468D+00
 Coeff-En:   0.000D+00 0.567D+00 0.433D+00
 Coeff:     -0.522D-02 0.563D+00 0.442D+00
 Gap=     0.262 Goal=   None    Shift=    0.000
 RMSDP=1.10D-04 MaxDP=4.18D-03 DE= 4.51D-05 OVMax= 2.68D-03

 Cycle   4  Pass 1  IDiag  1:
 RMSU=  4.39D-05    CP:  9.94D-01  1.02D+00  5.13D-01
 E= -344.832511111854     Delta-E=       -0.000171967846 Rises=F Damp=F
 DIIS: error= 8.49D-05 at cycle   4 NSaved=   4.
 NSaved= 4 IEnMin= 4 EnMin= -344.832511111854     IErMin= 4 ErrMin= 8.49D-05
 ErrMax= 8.49D-05  0.00D+00 EMaxC= 1.00D-01 BMatC= 2.15D-06 BMatP= 1.63D-04
 IDIUse=1 WtCom= 1.00D+00 WtEn= 0.00D+00
 Coeff-Com: -0.136D-01 0.203D+00 0.182D+00 0.629D+00
 Coeff:     -0.136D-01 0.203D+00 0.182D+00 0.629D+00
 Gap=     0.262 Goal=   None    Shift=    0.000
 RMSDP=1.88D-05 MaxDP=7.47D-04 DE=-1.72D-04 OVMax= 3.22D-04

 Cycle   5  Pass 1  IDiag  1:
 RMSU=  1.31D-05    CP:  9.94D-01  1.03D+00  4.93D-01  8.54D-01
 E= -344.832512743303     Delta-E=       -0.000001631449 Rises=F Damp=F
 DIIS: error= 3.46D-05 at cycle   5 NSaved=   5.
 NSaved= 5 IEnMin= 5 EnMin= -344.832512743303     IErMin= 5 ErrMin= 3.46D-05
 ErrMax= 3.46D-05  0.00D+00 EMaxC= 1.00D-01 BMatC= 3.00D-07 BMatP= 2.15D-06
 IDIUse=1 WtCom= 1.00D+00 WtEn= 0.00D+00
 Coeff-Com: -0.367D-02 0.355D-01 0.372D-01 0.293D+00 0.638D+00
 Coeff:     -0.367D-02 0.355D-01 0.372D-01 0.293D+00 0.638D+00
 Gap=     0.262 Goal=   None    Shift=    0.000
 RMSDP=6.50D-06 MaxDP=2.64D-04 DE=-1.63D-06 OVMax= 1.11D-04

 Cycle   6  Pass 1  IDiag  1:
 RMSU=  2.98D-06    CP:  9.94D-01  1.03D+00  5.12D-01  8.78D-01  7.41D-01
 E= -344.832513039161     Delta-E=       -0.000000295858 Rises=F Damp=F
 DIIS: error= 3.37D-06 at cycle   6 NSaved=   6.
 NSaved= 6 IEnMin= 6 EnMin= -344.832513039161     IErMin= 6 ErrMin= 3.37D-06
 ErrMax= 3.37D-06  0.00D+00 EMaxC= 1.00D-01 BMatC= 5.03D-09 BMatP= 3.00D-07
 IDIUse=1 WtCom= 1.00D+00 WtEn= 0.00D+00
 Coeff-Com: -0.114D-03-0.329D-02-0.130D-02 0.305D-01 0.157D+00 0.817D+00
 Coeff:     -0.114D-03-0.329D-02-0.130D-02 0.305D-01 0.157D+00 0.817D+00
 Gap=     0.262 Goal=   None    Shift=    0.000
 RMSDP=9.63D-07 MaxDP=3.73D-05 DE=-2.96D-07 OVMax= 1.50D-05

 Cycle   7  Pass 1  IDiag  1:
 RMSU=  5.82D-07    CP:  9.94D-01  1.03D+00  5.11D-01  8.82D-01  7.67D-01
                    CP:  8.19D-01
 E= -344.832513043374     Delta-E=       -0.000000004212 Rises=F Damp=F
 DIIS: error= 1.22D-06 at cycle   7 NSaved=   7.
 NSaved= 7 IEnMin= 7 EnMin= -344.832513043374     IErMin= 7 ErrMin= 1.22D-06
 ErrMax= 1.22D-06  0.00D+00 EMaxC= 1.00D-01 BMatC= 5.88D-10 BMatP= 5.03D-09
 IDIUse=1 WtCom= 1.00D+00 WtEn= 0.00D+00
 Coeff-Com:  0.358D-04-0.246D-02-0.168D-02 0.622D-02 0.568D-01 0.382D+00
 Coeff-Com:  0.559D+00
 Coeff:      0.358D-04-0.246D-02-0.168D-02 0.622D-02 0.568D-01 0.382D+00
 Coeff:      0.559D+00
 Gap=     0.262 Goal=   None    Shift=    0.000
 RMSDP=2.22D-07 MaxDP=4.58D-06 DE=-4.21D-09 OVMax= 4.40D-06

 Cycle   8  Pass 1  IDiag  1:
 RMSU=  1.66D-07    CP:  9.94D-01  1.03D+00  5.11D-01  8.84D-01  7.68D-01
                    CP:  8.33D-01  8.04D-01
 E= -344.832513043848     Delta-E=       -0.000000000474 Rises=F Damp=F
 DIIS: error= 3.85D-07 at cycle   8 NSaved=   8.
 NSaved= 8 IEnMin= 8 EnMin= -344.832513043848     IErMin= 8 ErrMin= 3.85D-07
 ErrMax= 3.85D-07  0.00D+00 EMaxC= 1.00D-01 BMatC= 4.87D-11 BMatP= 5.88D-10
 IDIUse=1 WtCom= 1.00D+00 WtEn= 0.00D+00
 Coeff-Com:  0.249D-04-0.670D-03-0.594D-03-0.530D-03 0.825D-02 0.767D-01
 Coeff-Com:  0.247D+00 0.670D+00
 Coeff:      0.249D-04-0.670D-03-0.594D-03-0.530D-03 0.825D-02 0.767D-01
 Coeff:      0.247D+00 0.670D+00
 Gap=     0.262 Goal=   None    Shift=    0.000
 RMSDP=6.26D-08 MaxDP=1.62D-06 DE=-4.74D-10 OVMax= 1.99D-06

 Cycle   9  Pass 1  IDiag  1:
 RMSU=  4.60D-08    CP:  9.94D-01  1.03D+00  5.11D-01  8.84D-01  7.69D-01
                    CP:  8.41D-01  7.99D-01  8.01D-01
 E= -344.832513043887     Delta-E=       -0.000000000040 Rises=F Damp=F
 DIIS: error= 2.02D-07 at cycle   9 NSaved=   9.
 NSaved= 9 IEnMin= 9 EnMin= -344.832513043887     IErMin= 9 ErrMin= 2.02D-07
 ErrMax= 2.02D-07  0.00D+00 EMaxC= 1.00D-01 BMatC= 9.10D-12 BMatP= 4.87D-11
 IDIUse=1 WtCom= 1.00D+00 WtEn= 0.00D+00
 Coeff-Com:  0.116D-04-0.163D-03-0.185D-03-0.891D-03-0.389D-03 0.812D-02
 Coeff-Com:  0.841D-01 0.372D+00 0.538D+00
 Coeff:      0.116D-04-0.163D-03-0.185D-03-0.891D-03-0.389D-03 0.812D-02
 Coeff:      0.841D-01 0.372D+00 0.538D+00
 Gap=     0.262 Goal=   None    Shift=    0.000
 RMSDP=2.20D-08 MaxDP=5.25D-07 DE=-3.97D-11 OVMax= 6.17D-07

 Cycle  10  Pass 1  IDiag  1:
 RMSU=  1.54D-08    CP:  9.94D-01  1.03D+00  5.11D-01  8.84D-01  7.69D-01
                    CP:  8.40D-01  8.11D-01  8.50D-01  7.79D-01
 E= -344.832513043906     Delta-E=       -0.000000000019 Rises=F Damp=F
 DIIS: error= 3.02D-08 at cycle  10 NSaved=  10.
 NSaved=10 IEnMin=10 EnMin= -344.832513043906     IErMin=10 ErrMin= 3.02D-08
 ErrMax= 3.02D-08  0.00D+00 EMaxC= 1.00D-01 BMatC= 4.48D-13 BMatP= 9.10D-12
 IDIUse=1 WtCom= 1.00D+00 WtEn= 0.00D+00
 Coeff-Com:  0.266D-05-0.848D-05-0.206D-04-0.339D-03-0.875D-03-0.380D-02
 Coeff-Com:  0.134D-01 0.102D+00 0.240D+00 0.649D+00
 Coeff:      0.266D-05-0.848D-05-0.206D-04-0.339D-03-0.875D-03-0.380D-02
 Coeff:      0.134D-01 0.102D+00 0.240D+00 0.649D+00
 Gap=     0.262 Goal=   None    Shift=    0.000
 RMSDP=7.61D-09 MaxDP=2.33D-07 DE=-1.90D-11 OVMax= 1.33D-07

 SCF Done:  E(RB3LYP) =  -344.832513044     A.U. after   10 cycles
            NFock= 10  Conv=0.76D-08     -V/T= 2.0092
 KE= 3.416951723284D+02 PE=-1.330715183698D+03 EE= 3.827005697762D+02
 Leave Link  502 at Mon Mar 23 14:55:32 2026, MaxMem=  8589934592 cpu:               7.0 elap:               7.3
 (Enter C:\G16W\l701.exe)
 ... and contract with generalized density number  0.
 Compute integral first derivatives.
 R6Disp: Adding Grimme-D3(BJ) dispersion energy 1st derivatives to the gradient.
 Leave Link  701 at Mon Mar 23 14:55:32 2026, MaxMem=  8589934592 cpu:               0.0 elap:               0.4
 (Enter C:\G16W\l702.exe)
 L702 exits ... SP integral derivatives will be done elsewhere.
 Leave Link  702 at Mon Mar 23 14:55:33 2026, MaxMem=  8589934592 cpu:               1.0 elap:               0.3
 (Enter C:\G16W\l703.exe)
 Integral derivatives from FoFJK, PRISM(SPDF).
 Compute integral first derivatives, UseDBF=F ICtDFT=           0.
 Calling FoFJK, ICntrl=      2127 FMM=F ISym2X=0 I1Cent= 0 IOpClX= 0 NMat=1 NMatS=1 NMatT=0.
 FoFJK:  IHMeth= 1 ICntrl=    2127 DoSepK=F KAlg= 0 I1Cent=           0 FoldK=F
 IRaf=         0 NMat=       1 IRICut=       1 DoRegI=T DoRafI=F ISym2E= 0 IDoP0=0 IntGTp=1.
 FoFCou: FMM=F IPFlag=           0 FMFlag=      100000 FMFlg1=         800
         NFxFlg=           0 DoJE=F BraDBF=F KetDBF=F FulRan=T
         wScrn=  0.000000 ICntrl=      2127 IOpCl=  0 I1Cent=           0 NGrid=           0
         NMat0=    1 NMatS0=      1 NMatT0=    0 NMatD0=    1 NMtDS0=    0 NMtDT0=    0
 Symmetry not used in FoFCou.
 Leave Link  703 at Mon Mar 23 14:55:34 2026, MaxMem=  8589934592 cpu:               1.0 elap:               1.3
 (Enter C:\G16W\l716.exe)
 Dipole        =-1.31794212D+00-5.82502017D-01 3.75385988D-01
 ***** Axes restored to original set *****
 -------------------------------------------------------------------
 Center     Atomic                   Forces (Hartrees/Bohr)
 Number     Number              X              Y              Z
 -------------------------------------------------------------------
      1        6          -0.004628866    0.002579018   -0.003829413
      2        1           0.001370596   -0.001258046    0.000422706
      3        1           0.001095696   -0.000524316    0.000743816
      4        6           0.002138520    0.003571231    0.005515501
      5        1          -0.000010819   -0.001048731   -0.001079089
      6        6           0.005835627   -0.001001598   -0.004720178
      7        1          -0.001851536   -0.001617538    0.000954318
      8        1          -0.001119254   -0.000629388    0.000884404
      9        8          -0.003907104    0.000643656    0.002205668
     10        1           0.002463181    0.001409523   -0.000742377
     11        8          -0.002046849   -0.003127555   -0.002363179
     12        1          -0.000028364    0.002329409    0.000690274
     13        8           0.001220406   -0.002443910    0.001451180
     14        1          -0.000531234    0.001118244   -0.000133631
 -------------------------------------------------------------------
 Cartesian Forces:  Max     0.005835627 RMS     0.002344572
 Leave Link  716 at Mon Mar 23 14:55:34 2026, MaxMem=  8589934592 cpu:               0.0 elap:               0.2
 (Enter C:\G16W\l103.exe)

 GradGradGradGradGradGradGradGradGradGradGradGradGradGradGradGradGradGrad
 Berny optimization.
 Using GEDIIS/GDIIS optimizer.
 FormGI is forming the generalized inverse of G from B-inverse, IUseBI=4.
 Internal  Forces:  Max     0.005182475 RMS     0.001183852
 Search for a local minimum.
 Step number   2 out of a maximum of   71
 All quantities printed in internal units (Hartrees-Bohrs-Radians)
 RMS Force = .11839D-02 SwitMx=.10000D-02 MixMth= 1
 Mixed Optimization -- RFO/linear search
 Update second derivatives using D2CorX and points    1    2
 DE= -2.70D-03 DEPred=-2.92D-03 R= 9.25D-01
 TightC=F SS=  1.41D+00  RLast= 1.71D-01 DXNew= 5.0454D-01 5.1158D-01
 Trust test= 9.25D-01 RLast= 1.71D-01 DXMaxT set to 5.05D-01
 ITU=  1  0
 Use linear search instead of GDIIS.
     Eigenvalues ---    0.00486   0.00522   0.00789   0.00833   0.00990
     Eigenvalues ---    0.04217   0.05039   0.05062   0.05633   0.05733
     Eigenvalues ---    0.05873   0.07474   0.10757   0.11406   0.13357
     Eigenvalues ---    0.13784   0.15839   0.16000   0.16635   0.19308
     Eigenvalues ---    0.19594   0.21835   0.22077   0.30134   0.30439
     Eigenvalues ---    0.32777   0.33874   0.33971   0.34017   0.34395
     Eigenvalues ---    0.35067   0.36191   0.37755   0.51279   0.51906
     Eigenvalues ---    0.52217
 RFO step:  Lambda=-5.90511232D-04 EMin= 4.86081921D-03
 Quartic linear search produced a step of -0.06371.
 Iteration  1 RMS(Cart)=  0.01518881 RMS(Int)=  0.00019581
 Iteration  2 RMS(Cart)=  0.00022141 RMS(Int)=  0.00005154
 Iteration  3 RMS(Cart)=  0.00000002 RMS(Int)=  0.00005154
 ITry= 1 IFail=0 DXMaxC= 6.09D-02 DCOld= 1.00D+10 DXMaxT= 5.05D-01 DXLimC= 3.00D+00 Rises=F
 Variable       Old X    -DE/DX   Delta X   Delta X   Delta X     New X
                                 (Linear)    (Quad)   (Total)
    R1        2.07318   0.00086  -0.00001   0.00238   0.00237   2.07555
    R2        2.07208   0.00077   0.00006   0.00197   0.00203   2.07410
    R3        2.86794   0.00107   0.00013   0.00294   0.00307   2.87101
    R4        2.72084  -0.00169   0.00341  -0.01343  -0.01003   2.71081
    R5        2.07450   0.00100   0.00000   0.00276   0.00276   2.07726
    R6        2.87209   0.00130   0.00018   0.00354   0.00372   2.87581
    R7        2.71612  -0.00148   0.00334  -0.01265  -0.00931   2.70680
    R8        2.06509   0.00095  -0.00010   0.00282   0.00273   2.06782
    R9        2.07589   0.00094   0.00000   0.00258   0.00259   2.07848
   R10        2.69371  -0.00060   0.00333  -0.01030  -0.00696   2.68675
   R11        1.83053   0.00075   0.00150  -0.00258  -0.00108   1.82945
   R12        1.82892   0.00089   0.00137  -0.00200  -0.00063   1.82829
   R13        1.82329   0.00000   0.00130  -0.00343  -0.00213   1.82116
    A1        1.91756   0.00002   0.00012  -0.00689  -0.00691   1.91065
    A2        1.93020  -0.00084   0.00021  -0.00625  -0.00615   1.92405
    A3        1.92035   0.00077   0.00053   0.01190   0.01244   1.93279
    A4        1.92640  -0.00127  -0.00006  -0.01189  -0.01200   1.91439
    A5        1.92319   0.00026  -0.00003   0.00462   0.00463   1.92782
    A6        1.84513   0.00110  -0.00080   0.00923   0.00844   1.85356
    A7        1.90932  -0.00010   0.00014  -0.00926  -0.00920   1.90012
    A8        1.97694  -0.00060   0.00047  -0.00335  -0.00299   1.97394
    A9        1.91741   0.00006  -0.00017   0.00632   0.00612   1.92354
   A10        1.91528  -0.00045   0.00021  -0.01041  -0.01028   1.90499
   A11        1.90398  -0.00004  -0.00026   0.00426   0.00407   1.90805
   A12        1.83894   0.00118  -0.00043   0.01359   0.01316   1.85210
   A13        1.93432  -0.00105   0.00040  -0.00780  -0.00753   1.92679
   A14        1.91458  -0.00092  -0.00010  -0.01079  -0.01096   1.90363
   A15        1.93562   0.00038  -0.00057   0.00621   0.00564   1.94126
   A16        1.90736  -0.00026   0.00017  -0.01032  -0.01033   1.89703
   A17        1.84431   0.00152   0.00027   0.01891   0.01918   1.86349
   A18        1.92659   0.00041  -0.00015   0.00456   0.00444   1.93103
   A19        1.83616   0.00518   0.00340   0.02099   0.02439   1.86055
   A20        1.85098   0.00412   0.00357   0.01431   0.01788   1.86886
   A21        1.90194   0.00211   0.00385   0.00184   0.00568   1.90763
    D1        1.00980   0.00050  -0.00104   0.01150   0.01044   1.02024
    D2       -1.13278   0.00158  -0.00174   0.03412   0.03232  -1.10047
    D3        3.09939   0.00043  -0.00137   0.01488   0.01346   3.11284
    D4        3.13546  -0.00089  -0.00079  -0.00937  -0.01009   3.12537
    D5        0.99287   0.00018  -0.00149   0.01325   0.01179   1.00466
    D6       -1.05814  -0.00097  -0.00113  -0.00599  -0.00707  -1.06521
    D7       -1.06827  -0.00061  -0.00131  -0.00479  -0.00609  -1.07437
    D8        3.07232   0.00046  -0.00202   0.01783   0.01579   3.08811
    D9        1.02131  -0.00069  -0.00165  -0.00141  -0.00307   1.01823
   D10        1.15774   0.00048  -0.00044   0.03148   0.03101   1.18875
   D11       -0.95929  -0.00021  -0.00091   0.02932   0.02841  -0.93088
   D12       -3.04086   0.00053  -0.00037   0.03568   0.03534  -3.00553
   D13        1.11823  -0.00149   0.00161  -0.03582  -0.03414   1.08409
   D14       -0.98949   0.00012   0.00121  -0.01084  -0.00966  -0.99916
   D15       -3.12218  -0.00003   0.00184  -0.01340  -0.01154  -3.13372
   D16       -1.02106  -0.00060   0.00094  -0.01378  -0.01282  -1.03387
   D17       -3.12878   0.00100   0.00054   0.01120   0.01166  -3.11712
   D18        1.02172   0.00086   0.00117   0.00864   0.00978   1.03150
   D19       -3.06864  -0.00098   0.00138  -0.02104  -0.01959  -3.08823
   D20        1.10682   0.00062   0.00098   0.00394   0.00488   1.11171
   D21       -1.02586   0.00048   0.00160   0.00138   0.00300  -1.02286
   D22       -0.88708  -0.00008  -0.00049  -0.00631  -0.00675  -0.89384
   D23        1.20575  -0.00019  -0.00058  -0.01119  -0.01179   1.19396
   D24       -3.02222  -0.00010  -0.00069  -0.01396  -0.01468  -3.03690
   D25        0.85605  -0.00006   0.00012   0.00327   0.00333   0.85939
   D26        2.95329  -0.00020   0.00045   0.00872   0.00922   2.96251
   D27       -1.26961   0.00057   0.00073   0.00963   0.01037  -1.25924
         Item               Value     Threshold  Converged?
 Maximum Force            0.005182     0.000450     NO 
 RMS     Force            0.001184     0.000300     NO 
 Maximum Displacement     0.060867     0.001800     NO 
 RMS     Displacement     0.015163     0.001200     NO 
 Predicted change in Energy=-3.073332D-04
 Lowest energy point so far.  Saving SCF results.
 GradGradGradGradGradGradGradGradGradGradGradGradGradGradGradGradGradGrad

 Leave Link  103 at Mon Mar 23 14:55:35 2026, MaxMem=  8589934592 cpu:               1.0 elap:               0.2
 (Enter C:\G16W\l202.exe)
                          Input orientation:                          
 ---------------------------------------------------------------------
 Center     Atomic      Atomic             Coordinates (Angstroms)
 Number     Number       Type             X           Y           Z
 ---------------------------------------------------------------------
      1          6           0       -1.257577   -0.713878    0.178194
      2          1           0       -1.314935   -1.712415   -0.275645
      3          1           0       -1.265450   -0.807984    1.271692
      4          6           0        0.011914   -0.007000   -0.265546
      5          1           0        0.013808    0.065095   -1.362416
      6          6           0        1.279757   -0.714545    0.190383
      7          1           0        1.335706   -1.716167   -0.246645
      8          1           0        1.264665   -0.808405    1.286150
      9          8           0        2.441553   -0.015115   -0.236753
     10          1           0        2.312645    0.912051    0.010159
     11          8           0        0.067368    1.309517    0.296070
     12          1           0       -0.775586    1.739806    0.095272
     13          8           0       -2.347953    0.107680   -0.262159
     14          1           0       -3.172027   -0.235004    0.101457
 ---------------------------------------------------------------------
                    Distance matrix (angstroms):
                    1          2          3          4          5
     1  C    0.000000
     2  H    1.098333   0.000000
     3  H    1.097569   1.792958   0.000000
     4  C    1.519273   2.160803   2.153215   0.000000
     5  H    2.143991   2.471067   3.055699   1.099239   0.000000
     6  C    2.537364   2.818751   2.766955   1.521814   2.149803
     7  H    2.812505   2.650802   3.145815   2.161951   2.482993
     8  H    2.756485   3.148138   2.530156   2.149278   3.056559
     9  O    3.787350   4.122323   4.079941   2.429823   2.677219
    10  H    3.926623   4.486518   4.165663   2.492796   2.808194
    11  O    2.421467   3.371898   2.685527   1.432378   2.074134
    12  H    2.501951   3.513731   2.848713   1.949789   2.356407
    13  O    1.434499   2.092858   2.088768   2.362654   2.605819
    14  H    1.974925   2.402861   2.309284   3.213123   3.518882
                    6          7          8          9         10
     6  C    0.000000
     7  H    1.094244   0.000000
     8  H    1.099883   1.782845   0.000000
     9  O    1.421766   2.028934   2.081733   0.000000
    10  H    1.935240   2.815651   2.384615   0.968101   0.000000
    11  O    2.361755   3.325355   2.626666   2.770434   2.298041
    12  H    3.202705   4.064260   3.474794   3.679670   3.198373
    13  O    3.747149   4.110474   4.035775   4.791147   4.737335
    14  H    4.478421   4.757591   4.627799   5.628057   5.604079
                   11         12         13         14
    11  O    0.000000
    12  H    0.967491   0.000000
    13  O    2.754960   2.294326   0.000000
    14  H    3.594037   3.105293   0.963716   0.000000
 Stoichiometry    C3H8O3
 Framework group  C1[X(C3H8O3)]
 Deg. of freedom    36
 Full point group                 C1      NOp   1
 RotChk:  IX=0 Diff= 5.29D-03
 Largest Abelian subgroup         C1      NOp   1
 Largest concise Abelian subgroup C1      NOp   1
                         Standard orientation:                         
 ---------------------------------------------------------------------
 Center     Atomic      Atomic             Coordinates (Angstroms)
 Number     Number       Type             X           Y           Z
 ---------------------------------------------------------------------
      1          6           0       -1.253371   -0.715884    0.189850
      2          1           0       -1.309114   -1.718948   -0.254097
      3          1           0       -1.259142   -0.799301    1.284229
      4          6           0        0.013659   -0.010363   -0.262991
      5          1           0        0.013498    0.050998   -1.360515
      6          6           0        1.283975   -0.710392    0.197633
[...]
 ! D4    D(3,1,4,5)            178.7413         -DE/DX =    0.0                 !
 ! D5    D(3,1,4,6)             57.5537         -DE/DX =    0.0                 !
 ! D6    D(3,1,4,11)           -61.0352         -DE/DX =    0.0                 !
 ! D7    D(13,1,4,5)           -61.5741         -DE/DX =    0.0                 !
 ! D8    D(13,1,4,6)           177.2383         -DE/DX =    0.0                 !
 ! D9    D(13,1,4,11)           58.6494         -DE/DX =    0.0                 !
 ! D10   D(2,1,13,14)           72.4104         -DE/DX =    0.0                 !
 ! D11   D(3,1,13,14)          -48.9902         -DE/DX =    0.0                 !
 ! D12   D(4,1,13,14)         -167.9721         -DE/DX =    0.0                 !
 ! D13   D(1,4,6,7)             61.744          -DE/DX =    0.0                 !
 ! D14   D(1,4,6,8)            -57.3296         -DE/DX =    0.0                 !
 ! D15   D(1,4,6,9)           -179.9816         -DE/DX =    0.0                 !
 ! D16   D(5,4,6,7)            -59.2906         -DE/DX =    0.0                 !
 ! D17   D(5,4,6,8)           -178.3641         -DE/DX =    0.0                 !
 ! D18   D(5,4,6,9)             58.9838         -DE/DX =    0.0                 !
 ! D19   D(11,4,6,7)          -177.1975         -DE/DX =    0.0                 !
 ! D20   D(11,4,6,8)            63.729          -DE/DX =    0.0                 !
 ! D21   D(11,4,6,9)           -58.9231         -DE/DX =    0.0                 !
 ! D22   D(1,4,11,12)          -52.1129         -DE/DX =    0.0                 !
 ! D23   D(5,4,11,12)           67.6778         -DE/DX =    0.0                 !
 ! D24   D(6,4,11,12)         -174.7147         -DE/DX =    0.0                 !
 ! D25   D(4,6,9,10)            49.8807         -DE/DX =    0.0                 !
 ! D26   D(7,6,9,10)           170.2262         -DE/DX =    0.0                 !
 ! D27   D(8,6,9,10)           -71.7653         -DE/DX =    0.0                 !
 --------------------------------------------------------------------------------
 GradGradGradGradGradGradGradGradGradGradGradGradGradGradGradGradGradGrad

 Leave Link  103 at Mon Mar 23 14:58:18 2026, MaxMem=  8589934592 cpu:               0.0 elap:               0.3
 (Enter C:\G16W\l9999.exe)

 ----------------------------------------------------------------------

 Electric dipole moment (input orientation):
 (Debye = 10**-18 statcoulomb cm , SI units = C m)
                  (au)            (Debye)         (10**-30 SI)
   Tot        0.141903D+01      0.360681D+01      0.120310D+02
   x         -0.126522D+01     -0.321587D+01     -0.107270D+02
   y         -0.495430D+00     -0.125926D+01     -0.420043D+01
   z          0.409150D+00      0.103996D+01      0.346892D+01

 Dipole polarizability, Alpha (input orientation).
 (esu units = cm**3 , SI units = C**2 m**2 J**-1)
 Alpha(0;0):
               (au)            (10**-24 esu)      (10**-40 SI)
   iso        0.507725D+02      0.752371D+01      0.837125D+01
   aniso      0.983816D+01      0.145787D+01      0.162209D+01
   xx         0.567129D+02      0.840399D+01      0.935070D+01
   yx         0.124884D+00      0.185060D-01      0.205906D-01
   yy         0.501026D+02      0.742444D+01      0.826081D+01
   zx        -0.491870D+00     -0.728876D-01     -0.810984D-01
   zy        -0.497546D+00     -0.737287D-01     -0.820343D-01
   zz         0.455019D+02      0.674269D+01      0.750226D+01

 ----------------------------------------------------------------------

 Dipole orientation:
     6         -0.29394178         -0.54434485          2.68723192
     1         -0.63304242         -2.53445903          3.17479885
     1          1.58764560          0.01427282          3.36230302
     6         -0.44287168         -0.18718480         -0.16092497
     1         -2.32119918         -0.79387852         -0.81509653
     6          1.57224349         -1.67327689         -1.57981242
     1          1.33236370         -3.69970994         -1.24678918
     1          3.45008702         -1.10642938         -0.88609974
     8          1.38127497         -1.29833244         -4.22829870
     1          1.29601966          0.50925341         -4.50324169
     8         -0.05665371          2.40677346         -0.80684223
     1         -1.21726977          3.39999642          0.19949205
     8         -2.20481597          1.04859762          3.75380814
     1         -1.96729849          1.17331310          5.55673532

 Electric dipole moment (dipole orientation):
 (Debye = 10**-18 statcoulomb cm , SI units = C m)
                  (au)            (Debye)         (10**-30 SI)
   Tot        0.141903D+01      0.360681D+01      0.120310D+02
   x          0.000000D+00      0.000000D+00      0.000000D+00
   y          0.000000D+00      0.000000D+00      0.000000D+00
   z          0.141903D+01      0.360681D+01      0.120310D+02

 Dipole polarizability, Alpha (dipole orientation).
 (esu units = cm**3 , SI units = C**2 m**2 J**-1)
 Alpha(0;0):
               (au)            (10**-24 esu)      (10**-40 SI)
   iso        0.507725D+02      0.752371D+01      0.837125D+01
   aniso      0.983816D+01      0.145787D+01      0.162209D+01
   xx         0.472700D+02      0.700469D+01      0.779377D+01
   yx        -0.231267D+01     -0.342703D+00     -0.381309D+00
   yy         0.496416D+02      0.735612D+01      0.818479D+01
   zx        -0.290329D+01     -0.430223D+00     -0.478687D+00
   zy         0.988818D+00      0.146528D+00      0.163034D+00
   zz         0.554060D+02      0.821032D+01      0.913521D+01

 ----------------------------------------------------------------------
 Unable to Open any file for archive entry.
 1|1|UNPC-DESKTOP-EKAT3NU|Freq|RB3LYP|6-31+G(d,p)|C3H8O3|MAKE|23-Mar-20
 26|0||#P Geom=AllCheck Guess=TCheck SCRF=Check GenChk RB3LYP/6-31+G(d,
 p) Freq||Title Card Required||0,1|C,-1.257856144,-0.7196923198,0.17075
 63486|H,-1.3021581546,-1.7198969325,-0.2825264914|H,-1.2664981422,-0.8
 173578838,1.2647355257|C,0.0101152826,-0.0033242749,-0.2680926177|H,0.
 0157041423,0.0670295143,-1.366227112|C,1.277944641,-0.7108370945,0.191
 6275966|H,1.3313099979,-1.7125764998,-0.2451308938|H,1.258696209,-0.80
 75250627,1.2882051406|O,2.4409144972,-0.0174630764,-0.2333048888|H,2.3
 222405452,0.9102663273,0.0184772407|O,0.0614698191,1.3094191429,0.2948
 225659|H,-0.7755286198,1.7477564948,0.0842664849|O,-2.3519959266,0.090
 775829,-0.2737949667|H,-3.1704681469,-0.212938164,0.1364000672||Versio
 n=EM64W-G16RevC.01|State=1-A|HF=-344.8329249|RMSD=2.198e-009|RMSF=2.22
 8e-005|ZeroPoint=0.1187328|Thermal=0.1260667|ETot=-344.7068583|HTot=-3
 44.7059141|GTot=-344.7451513|Dipole=-1.2652201,-0.4954295,0.40915|Dipo
 leDeriv=0.6581245,-0.2910194,0.1346716,-0.1939612,0.378409,0.0012745,0
 .1339714,-0.0029367,0.3675744,-0.0162563,0.0099464,-0.0096743,0.041986
 3,-0.1753594,-0.0462555,-0.0229138,-0.0918578,0.0090998,-0.0272548,0.0
 242136,-0.025624,0.0474134,0.0209579,0.0058665,-0.0157602,0.0612691,-0
 .1667851,0.1887381,-0.0174814,-0.0329366,0.0143128,0.6940439,0.1551521
 ,-0.0286174,0.1707712,0.328535,0.0091391,-0.0078592,-0.0014894,-0.0035
 369,-0.0458493,0.0103045,-0.0000914,-0.0346654,-0.1714068,0.7011779,0.
 2146583,-0.1126886,0.1924637,0.3881059,-0.0796586,-0.1017666,-0.060846
 2,0.4141797,0.0209582,-0.0077332,0.0028908,-0.0176695,-0.110753,-0.041
 9875,0.008259,-0.0866126,0.0247769,-0.0422029,-0.031248,0.0422748,-0.0
 228528,0.0230394,0.0154912,0.0372923,0.0772724,-0.19532,-0.9102526,-0.
 1970363,0.0378418,-0.2660957,-0.4883517,0.1336485,0.0095698,0.1168118,
 -0.5009814,0.352391,0.0518738,0.0508362,0.0259245,0.2220303,-0.038524,
 0.0680939,-0.0429659,0.2815748,-0.5023286,0.0065163,0.0821215,-0.03122
 15,-0.9661968,-0.1244331,0.0833616,-0.1291037,-0.4937003,0.2480786,0.0
 500045,-0.0483921,0.0339373,0.3415822,-0.0174202,-0.0627924,-0.0171658
 ,0.2822527,-0.9170886,0.2213001,-0.1603288,0.2203029,-0.5390886,-0.056
 3713,-0.1657584,-0.036258,-0.4611513,0.2367764,-0.0261355,0.0404971,-0
 .0410032,0.2574303,0.0829129,0.0571521,0.0762874,0.2813518|Polar=56.71
 29223,0.1248843,50.1026304,-0.4918701,-0.4975462,45.5019441|Quadrupole
 =-1.0882605,2.0418708,-0.9536103,2.1412709,-0.9831948,-0.6924137|PG=C0
 1 [X(C3H8O3)]|NImag=0||0.45457835,0.01946084,0.55163584,-0.01724136,0.
 03166881,0.58970581,-0.05221038,-0.02220683,-0.00506691,0.05884266,-0.
 02000535,-0.24672281,-0.09616134,0.01092166,0.27646489,-0.00726630,-0.
 09913446,-0.10362522,0.00954223,0.10365347,0.10143180,-0.05024612,-0.0
 0375825,0.01173583,0.00254767,-0.00127704,-0.00313370,0.05973208,-0.00
 142157,-0.05451741,0.00923689,0.00129031,0.00385038,-0.02841708,-0.004
 95337,0.05516736,0.00968883,0.01420300,-0.29879659,0.00217210,0.000423
 01,-0.01185666,-0.00486339,-0.02197479,0.32509141,-0.14496078,-0.02961
 218,0.03140357,0.00393633,-0.00027069,0.00132330,-0.00130136,-0.002255
 80,0.00188455,0.52491591,-0.05757674,-0.09546874,0.02458051,-0.0210446
 5,-0.01260266,0.00886849,-0.00081416,-0.00070016,-0.00134454,-0.014102
 36,0.46776737,0.03825083,0.02237373,-0.09964642,-0.01465779,-0.0095374
 3,0.00345184,0.03098281,0.01590091,-0.01230256,0.00597617,-0.02555744,
 0.59599839,-0.00223928,-0.00591027,0.02982991,0.00084780,0.00031957,-0
 .00064102,-0.00467489,-0.00208111,0.00164881,-0.05292550,0.00001646,0.
 00220382,0.05348845,-0.00029319,-0.00073150,0.01725273,0.00080601,0.00
 037764,0.00000032,-0.00308166,-0.00087260,0.00107544,0.00073297,-0.048
 90826,0.02795247,0.00142288,0.06569877,-0.00055248,0.00317249,-0.01111
 851,0.00068458,0.00054839,0.00043470,0.00098917,0.00107333,0.00067777,
 0.00239269,0.02674137,-0.29201111,-0.00186069,-0.01933825,0.32104074,-
 0.02743765,0.00624494,-0.00638071,0.00036324,0.00052565,0.00003542,0.0
 0122580,0.00072539,-0.00104337,-0.14193793,0.05659022,-0.03496538,-0.0
 0074382,-0.00019742,0.00075863,0.44794600,-0.00696142,0.01499074,-0.00
 680432,-0.00034791,-0.00107712,-0.00054699,-0.00064041,-0.00001433,0.0
 0050434,0.03039536,-0.10004088,0.01973503,0.00499051,-0.00150750,0.003
 02328,-0.00780997,0.60262755,0.00735636,-0.00678266,0.00333425,-0.0004
 3899,-0.00020884,-0.00010051,0.00179471,0.00004280,-0.00090991,-0.0377
 0793,0.02621151,-0.09965441,-0.02907888,0.01765345,-0.01099765,-0.0043
 8507,0.04732774,0.57789661,0.00005211,0.00045254,0.00051950,-0.0006978
 3,-0.00027720,-0.00010970,-0.00010984,-0.00004697,-0.00000729,0.003911
 14,0.02127517,0.01405240,0.00083172,-0.00062095,-0.00047414,-0.0511330
 4,0.02613758,0.00723090,0.06054118,-0.00043102,-0.00105723,-0.00023745
 ,0.00019733,0.00085829,0.00012772,0.00006904,0.00001536,0.00010260,-0.
 00007576,-0.01230578,-0.00827504,-0.00029911,0.00032916,0.00044253,0.0
 1880237,-0.26230055,-0.09637028,-0.01187240,0.29228264,0.00009346,-0.0
 0055416,0.00000785,0.00007267,0.00012923,0.00033346,-0.00003909,-0.000
 09247,0.00005189,-0.00092384,0.01030345,0.00358301,0.00065217,0.000012
 85,0.00041993,0.00628032,-0.10389696,-0.09978656,-0.00993942,0.1051933
 4,0.09895821,0.00128850,0.00042527,-0.00172581,-0.00012318,-0.00006463
 ,0.00005074,-0.00045829,-0.00008391,0.00051300,-0.00183468,0.00194435,
 -0.03043063,-0.00443849,0.00304691,-0.00114226,-0.04764482,0.00240762,
 -0.00707330,0.00172332,0.00082406,0.00297876,0.06195926,-0.00088195,-0
 .00036356,0.00032839,0.00003227,0.00002173,-0.00005108,0.00008355,0.00
 033214,-0.00030905,0.00369220,-0.00046428,0.01683220,0.00207546,-0.000
 91037,0.00109341,0.00306835,-0.05559997,0.00923354,-0.00098936,0.00391
 372,-0.02866111,0.00429983,0.05346245,0.00092464,0.00062146,-0.0009919
 0,-0.00002023,0.00011167,0.00009650,-0.00067940,-0.00022399,0.00099714
 ,-0.00149397,-0.00147107,-0.01402233,-0.00189733,0.00111897,0.00052643
 ,-0.00790762,0.01257823,-0.29090541,-0.00160544,0.00029410,-0.01144616
 ,-0.00089009,-0.02100831,0.31896559,0.00017565,0.00838352,-0.00313857,
 0.00022736,-0.00032058,-0.00034506,-0.00023542,-0.00001664,0.00010431,
 -0.04899250,-0.02601343,0.01502883,0.00320813,-0.00095554,0.00046550,-
 0.17371443,-0.03545058,0.05040057,-0.00432255,-0.00691221,0.00057354,-
 0.01246734,-0.01035242,0.01252235,0.28547728,0.00226444,-0.00083898,0.
 00027700,0.00054093,0.00065281,0.00011088,0.00026403,-0.00007863,-0.00
 018038,0.00158863,0.00207130,-0.00354337,-0.00059897,0.00056972,-0.001
 01953,-0.08121544,-0.12732853,0.02607475,-0.03657065,-0.02092310,0.013
 00308,-0.01211517,-0.00309439,0.00884509,0.03694197,0.60599263,-0.0013
 8106,0.00116205,0.00029391,0.00017662,0.00022759,-0.00004592,-0.000809
 00,-0.00032719,0.00076493,-0.00386800,-0.00413594,0.00428582,0.0018482
 1,-0.00173040,0.00236059,0.04461928,0.00772003,-0.08561782,-0.00879254
 ,-0.00321864,0.00689969,0.03492816,0.02155214,-0.00616674,-0.10383142,
 0.09287922,0.12347976,-0.00003437,-0.00016936,0.00028094,0.00035655,0.
 00039566,0.00005776,0.00010559,-0.00004408,-0.00010914,-0.00156341,-0.
 00553527,-0.00201271,-0.00032620,0.00039314,0.00006838,-0.00155490,-0.
 04012637,-0.00837794,-0.00547476,-0.00345056,0.00196794,0.00018287,0.0
 0012834,0.00063086,-0.04514042,0.08442043,0.03756853,0.05081977,-0.000
 27414,-0.00127697,-0.00012611,-0.00018398,-0.00002062,0.00006645,0.000
 01505,0.00001889,0.00003100,0.00162810,0.00274638,-0.00066327,-0.00020
 817,-0.00012805,-0.00015990,0.00126805,-0.02252295,-0.00705349,-0.0030
 0130,0.00000949,0.00265494,0.00131386,0.00055796,-0.00052805,0.0361992
 6,-0.46140685,-0.11423814,-0.03785610,0.48283947,-0.00029082,-0.000454
 30,-0.00000886,-0.00004668,0.00003479,-0.00000599,0.00016083,0.0001081
 4,-0.00016781,0.00054312,-0.00080341,0.00155529,-0.00059950,-0.0002043
 3,-0.00050022,0.00115401,0.01450745,0.00275940,0.00104019,0.00060644,0
 .00006822,0.00052859,0.00151049,-0.00013500,0.02728361,-0.13570457,-0.
 04872042,-0.03019465,0.11990274,0.04713045,-0.00394648,-0.03023275,-0.
 01393413,-0.00549065,-0.00319571,0.00153453,0.00200008,0.00137198,-0.0
 0089903,-0.08809354,0.01842765,-0.00541594,0.00375815,-0.00089416,-0.0
 0003420,-0.00444517,0.03672489,0.01540005,-0.00602893,0.00349294,-0.00
 177570,0.00173819,-0.00122671,0.00051743,0.00165980,0.00407553,-0.0002
 4834,0.00155354,0.00016084,0.00050453,0.48622097,-0.00459887,-0.043956
 49,-0.01463996,-0.00665761,-0.00176319,0.00122967,0.00174334,0.0020058
 7,0.00009698,-0.02121517,-0.18035237,-0.06036138,-0.00028608,-0.015519
 14,-0.01459497,0.00547084,-0.03795059,-0.01252642,0.00417718,-0.000752
 73,0.00118037,-0.00153591,0.00188481,-0.00005801,0.00016551,0.00202432
 ,-0.00021888,0.00001716,-0.00070269,0.00080272,-0.18321918,0.39614803,
 -0.00121066,0.00060154,0.00443752,0.00168650,0.00145482,0.00151172,-0.
 00225462,-0.00039356,0.00265485,-0.02063690,-0.04610429,-0.09820266,-0
 .00154120,-0.04159638,-0.01235446,0.00116293,0.00627390,0.00534979,-0.
 00212679,0.00134463,0.00030212,0.00160865,-0.00004066,0.00221919,0.000
 33994,-0.00051100,0.00176603,0.00032113,0.00000227,-0.00146513,0.12028
 272,0.05319169,0.13242602,0.00314691,-0.00449133,0.00005653,-0.0009921
 4,0.00050373,-0.00021346,-0.00037871,0.00026139,-0.00006894,0.00245828
 ,-0.00253244,-0.00072955,-0.00003001,-0.00112989,-0.00093818,-0.000959
 68,-0.00082405,0.00083363,0.00024175,-0.00049418,-0.00020802,0.0001662
 6,-0.00012035,0.00018266,0.00039112,0.00072377,0.00009921,0.00065423,-
 0.00001488,-0.00038475,-0.38984830,0.20369176,-0.09768930,0.38588629,0
 .00220994,-0.00263108,0.00118252,0.00055683,0.00069655,-0.00000350,-0.
 00038315,-0.00021199,0.00001799,0.03509119,-0.02214250,0.00897530,0.00
 001732,0.00096266,-0.00034777,-0.00158633,-0.00794219,-0.00417880,0.00
 184928,-0.00068139,0.00056582,-0.00039987,0.00029865,-0.00007402,-0.00
 158060,0.00124882,0.00039570,0.00132017,-0.00000693,-0.00028600,0.1600
 2758,-0.12572592,0.02540477,-0.19787552,0.15362982,-0.00063956,0.00005
 643,0.00154004,-0.00027390,-0.00014622,-0.00027441,0.00001576,0.000539
 37,-0.00042454,0.01507248,-0.01084937,0.00248473,0.00077039,-0.0008480
 6,-0.00020603,-0.00020208,-0.00189658,-0.00115362,0.00037832,-0.000231
 22,0.00072390,0.00003196,-0.00013777,0.00016538,0.00022494,-0.00023722
 ,0.00007846,-0.00027926,0.00004288,-0.00041737,-0.11438494,0.04586742,
 -0.04054542,0.09882454,-0.03200585,0.04016580,-0.15546761,0.07462474,-
 0.04152350,-0.00857240,0.01317836,-0.00139044,-0.01018383,0.00856122,-
 0.00874604,-0.04801391,0.02451451,-0.01489443,0.00256167,0.00052852,-0
 .00018241,0.00018615,-0.00674456,0.00307142,0.00044503,0.00007899,0.00
 021334,-0.00005137,0.00009417,-0.00006975,-0.00561402,-0.00045325,-0.0
 0014263,0.00046722,0.00083950,0.00024942,-0.00030021,0.00109085,-0.000
 09923,-0.00051605,0.00113948,0.00028849,0.60274589,0.04344341,-0.12378
 093,0.04336212,0.03475779,-0.02026929,0.01449764,0.01264669,-0.0054483
 8,0.00668301,-0.00791993,0.00436112,-0.00519052,0.00055233,0.00073742,
 -0.00047216,-0.00233146,-0.00208358,0.00095278,-0.00047896,0.00058821,
 0.00022709,0.,-0.00005302,-0.00021621,-0.00049617,0.00107694,-0.000134
 96,0.00045738,-0.00009223,-0.00003913,-0.00412490,0.00409711,0.0008504
 4,0.00153992,0.00129628,-0.00122711,0.03227849,0.21877287,-0.01048229,
 0.03561295,-0.08856055,0.00566423,-0.00098279,0.00876069,-0.03249571,0
 .02475127,-0.00641988,0.00815543,-0.00818560,0.00581747,-0.00116893,-0
 .00133341,0.00139293,0.00125683,0.00200462,-0.00120146,-0.00021724,0.0
 0023565,-0.00008419,0.00050990,-0.00026787,0.00078470,0.00089080,-0.00
 006320,0.00075788,0.00006511,-0.00000632,-0.00013803,-0.00121288,0.000
 17560,0.00210899,0.00008201,0.00012285,-0.00213124,-0.13656606,-0.1443
 0796,0.18895628,-0.02269885,-0.01321088,0.01518471,0.00096497,-0.00043
 344,0.00055570,0.00197724,-0.00130684,-0.00027440,-0.00559803,0.004850
 68,-0.00338842,0.00068225,0.00024238,-0.00017459,-0.00014976,-0.001750
 69,0.00097447,0.00002069,0.00007050,0.00005388,-0.00004022,0.00009662,
 -0.00021411,-0.00065267,0.00013375,-0.00016702,-0.00004571,0.00011390,
 0.00005210,0.00122254,0.00115617,0.00015682,-0.00021996,-0.00038633,0.
 00017286,-0.37768655,-0.11032458,0.16551879,0.40222407,0.02506560,0.00
 471912,-0.00991977,0.00133785,-0.00046661,-0.00040151,0.00008634,0.000
 45350,0.00067139,0.00232343,-0.00396055,0.00135882,-0.00001081,-0.0000
 9796,-0.00016222,0.00044480,0.00074989,-0.00037609,-0.00003398,0.00002
 391,-0.00006548,-0.00006242,0.00001413,0.00001013,0.00040792,0.0000339
 3,0.00006741,0.00004946,-0.00001489,0.00001898,-0.00138799,0.00056298,
 -0.00047817,0.00076206,0.00120921,0.00107329,-0.14973102,-0.07920253,0
 .09224421,0.12074876,0.07597587,-0.01724959,-0.00254688,0.00342868,0.0
 0050558,0.00045366,-0.00011201,-0.00140421,-0.00022362,0.00063997,-0.0
 0212068,0.00174633,-0.00133706,-0.00016575,-0.00001541,0.00033490,-0.0
 0038321,-0.00052979,0.00098730,0.00005126,-0.00001436,-0.00003138,0.00
 011232,-0.00007432,-0.00008740,-0.00051933,0.00006925,-0.00013617,0.00
 001305,0.00007500,0.00004547,-0.00033411,-0.00014482,-0.00020854,0.000
 15363,0.00023099,-0.00000569,0.19979182,0.08501497,-0.11004360,-0.1784
 5077,-0.08404100,0.10652554||-0.00004056,-0.00000408,-0.00000962,0.000
 00536,-0.00001925,0.00000162,-0.00000237,-0.00000462,-0.00000708,-0.00
 001259,0.00008241,-0.00002259,-0.00001774,-0.00000389,0.00001443,0.000
 00094,-0.00004981,0.00002676,0.00001366,0.00000547,-0.00000300,-0.0000
 0746,0.00001241,-0.00000283,0.00000760,-0.00001095,-0.00001707,-0.0000
 0263,0.00001649,0.00001358,0.00000493,-0.00002723,-0.00000970,0.000002
 11,0.00001586,-0.00000670,0.00006291,-0.00001378,0.00002312,-0.0000141
 6,0.00000098,-0.00000090|||@
 The archive entry for this job was punched.


 ... UNTIL SCIENCE IS MIXED WITH EMOTION AND APPEALS TO THE HEART AND
 IMAGINATION , IT IS LIKE DEAD INORGANIC MATTER; AND WHEN IT IS SO MIXED
 AND SO TRANSFORMED IT IS LITERATURE.

                                  -- JOHN BURROUGHS
 Job cpu time:       0 days  0 hours  1 minutes 12.0 seconds.
 Elapsed time:       0 days  0 hours  1 minutes  3.6 seconds.
 File lengths (MBytes):  RWF=     41 Int=      0 D2E=      0 Chk=      3 Scr=      1
 Normal termination of Gaussian 16 at Mon Mar 23 14:58:18 2026.
